LAMMPS (3 Nov 2022)
OMP_NUM_THREADS environment is not set. Defaulting to 1 thread. (src/comm.cpp:98)
  using 1 OpenMP thread(s) per MPI task
Reading data file ...
  triclinic box = (0 0 0) to (400 400 400) with tilt (0 0 0)
  4 by 4 by 4 MPI processor grid
  reading atoms ...
  20000 atoms
  scanning bonds ...
  8 = max bonds/atom
  scanning dihedrals ...
  8 = max dihedrals/atom
  reading bonds ...
  58858 bonds
  reading dihedrals ...
  57443 dihedrals
Finding 1-2 1-3 1-4 neighbors ...
  special bond factors lj:    0        0        0       
  special bond factors coul:  0        0        0       
     9 = max # of 1-2 neighbors
    50 = max # of 1-3 neighbors
   315 = max # of 1-4 neighbors
    64 = max # of special neighbors
  special bonds CPU = 0.008 seconds
  read_data CPU = 0.782 seconds
17736 atoms in group 1
Generated 0 of 0 mixed pair_coeff terms from geometric mixing rule
Neighbor list info ...
  update: every = 1 steps, delay = 0 steps, check = yes
  max neighbors/atom: 2000, page size: 100000
  master list distance cutoff = 18
  ghost atom cutoff = 18
  binsize = 9, bins = 45 45 45
  1 neighbor lists, perpetual/occasional/extra = 1 0 0
  (1) pair lj/cut, perpetual
      attributes: half, newton on
      pair build: half/bin/newton/tri
      stencil: half/bin/3d/tri
      bin: standard
Setting up Verlet run ...
  Unit style    : metal
  Current step  : 0
  Time step     : 0.001
Per MPI rank memory allocation (min/avg/max) = 21.22 | 21.23 | 21.26 Mbytes
   Step         TotEng         PotEng          Temp          E_bond        E_dihed           Lx             Ly             Lz      
         0   173.93049      173.93049      0              1.3309946e-22  173.93309      398.44413      397.48794      400          
      1000   186.39771      179.16881      2.7964005      5.1573509      174.02136      399.06656      398.71573      396          
Loop time of 3.62879 on 64 procs for 1000 steps with 20000 atoms

Performance: 23.810 ns/day, 1.008 hours/ns, 275.574 timesteps/s, 5.511 Matom-step/s
98.2% CPU use with 64 MPI tasks x 1 OpenMP threads

MPI task timing breakdown:
Section |  min time  |  avg time  |  max time  |%varavg| %total
---------------------------------------------------------------
Pair    | 0.00068641 | 0.00096346 | 0.0016387  |   0.0 |  0.03
Bond    | 0.10125    | 0.13289    | 0.16969    |   3.7 |  3.66
Neigh   | 0.0003313  | 0.00046794 | 0.00061465 |   0.0 |  0.01
Comm    | 0.22558    | 0.26469    | 0.29714    |   3.2 |  7.29
Output  | 2.9407     | 3.1464     | 3.1956     |   4.1 | 86.71
Modify  | 0.01299    | 0.026853   | 0.047823   |   5.2 |  0.74
Other   |            | 0.05655    |            |       |  1.56

Nlocal:          312.5 ave         370 max         244 min
Histogram: 3 7 2 3 8 9 13 11 7 1
Nghost:        384.891 ave         605 max         196 min
Histogram: 2 12 10 5 12 2 5 7 2 7
Neighs:        22.9688 ave         199 max           0 min
Histogram: 47 2 5 3 2 2 1 1 0 1

Total # of neighbors = 1470
Ave neighs/atom = 0.0735
Ave special neighs/atom = 36.5259
Neighbor list builds = 1
Dangerous builds = 0
System init for write_data ...
Generated 0 of 0 mixed pair_coeff terms from geometric mixing rule
Generated 0 of 0 mixed pair_coeff terms from geometric mixing rule
Setting up Verlet run ...
  Unit style    : metal
  Current step  : 1000
  Time step     : 0.001
Per MPI rank memory allocation (min/avg/max) = 21.23 | 21.24 | 21.26 Mbytes
   Step         TotEng         PotEng          Temp          E_bond        E_dihed           Lx             Ly             Lz      
      1000   186.44433      179.21542      2.7964005      5.2038302      174.0215       399.24937      399.90848      396          
      2000   190.39145      184.13928      2.4185659      6.5110837      179.84225      399.25209      401.678        392.04       
Loop time of 0.659947 on 64 procs for 1000 steps with 20000 atoms

Performance: 130.920 ns/day, 0.183 hours/ns, 1515.273 timesteps/s, 30.305 Matom-step/s
99.2% CPU use with 64 MPI tasks x 1 OpenMP threads

MPI task timing breakdown:
Section |  min time  |  avg time  |  max time  |%varavg| %total
---------------------------------------------------------------
Pair    | 0.00070573 | 0.000988   | 0.0018038  |   0.0 |  0.15
Bond    | 0.10102    | 0.13287    | 0.17203    |   3.7 | 20.13
Neigh   | 0.00065729 | 0.00090077 | 0.0011969  |   0.0 |  0.14
Comm    | 0.23823    | 0.27534    | 0.30613    |   2.9 | 41.72
Output  | 0.15344    | 0.18493    | 0.21368    |   4.1 | 28.02
Modify  | 0.013591   | 0.028701   | 0.044788   |   4.6 |  4.35
Other   |            | 0.03621    |            |       |  5.49

Nlocal:          312.5 ave         372 max         243 min
Histogram: 3 6 4 3 9 8 14 8 8 1
Nghost:        390.891 ave         614 max         191 min
Histogram: 1 10 13 5 10 5 5 6 2 7
Neighs:        32.9688 ave         239 max           0 min
Histogram: 44 5 3 3 3 2 1 1 1 1

Total # of neighbors = 2110
Ave neighs/atom = 0.1055
Ave special neighs/atom = 36.5259
Neighbor list builds = 2
Dangerous builds = 0
System init for write_data ...
Generated 0 of 0 mixed pair_coeff terms from geometric mixing rule
Generated 0 of 0 mixed pair_coeff terms from geometric mixing rule
Setting up Verlet run ...
  Unit style    : metal
  Current step  : 2000
  Time step     : 0.001
Per MPI rank memory allocation (min/avg/max) = 21.23 | 21.24 | 21.26 Mbytes
   Step         TotEng         PotEng          Temp          E_bond        E_dihed           Lx             Ly             Lz      
      2000   190.43636      184.18419      2.4185659      6.5558192      179.84243      399.27338      401.7482       392.04       
      3000   192.50209      186.86213      2.1817414      8.0829066      187.83066      399.57498      402.53325      388.1196     
Loop time of 0.757353 on 64 procs for 1000 steps with 20000 atoms

Performance: 114.082 ns/day, 0.210 hours/ns, 1320.388 timesteps/s, 26.408 Matom-step/s
99.2% CPU use with 64 MPI tasks x 1 OpenMP threads

MPI task timing breakdown:
Section |  min time  |  avg time  |  max time  |%varavg| %total
---------------------------------------------------------------
Pair    | 0.00070708 | 0.0010541  | 0.0020011  |   0.9 |  0.14
Bond    | 0.10063    | 0.13302    | 0.1714     |   3.7 | 17.56
Neigh   | 0.00065667 | 0.00087626 | 0.0012702  |   0.0 |  0.12
Comm    | 0.25381    | 0.29771    | 0.33313    |   3.4 | 39.31
Output  | 0.1904     | 0.23784    | 0.27919    |   5.4 | 31.40
Modify  | 0.018885   | 0.037621   | 0.065494   |   6.7 |  4.97
Other   |            | 0.04923    |            |       |  6.50

Nlocal:          312.5 ave         373 max         245 min
Histogram: 3 7 4 1 12 9 11 8 8 1
Nghost:        393.422 ave         617 max         194 min
Histogram: 1 10 13 6 9 5 5 5 4 6
Neighs:        38.7969 ave         228 max           0 min
Histogram: 38 7 6 2 2 4 1 2 0 2

Total # of neighbors = 2483
Ave neighs/atom = 0.12415
Ave special neighs/atom = 36.5259
Neighbor list builds = 2
Dangerous builds = 0
System init for write_data ...
Generated 0 of 0 mixed pair_coeff terms from geometric mixing rule
Generated 0 of 0 mixed pair_coeff terms from geometric mixing rule
Setting up Verlet run ...
  Unit style    : metal
  Current step  : 3000
  Time step     : 0.001
Per MPI rank memory allocation (min/avg/max) = 21.23 | 21.24 | 21.26 Mbytes
   Step         TotEng         PotEng          Temp          E_bond        E_dihed           Lx             Ly             Lz      
      3000   192.54731      186.90735      2.1817414      8.1278984      187.8309       399.74288      402.74526      388.1196     
      4000   201.17722      196.23333      1.9124788      9.1981232      199.13108      399.94795      403.22198      384.2384     
Loop time of 0.712935 on 64 procs for 1000 steps with 20000 atoms

Performance: 121.189 ns/day, 0.198 hours/ns, 1402.653 timesteps/s, 28.053 Matom-step/s
99.2% CPU use with 64 MPI tasks x 1 OpenMP threads

MPI task timing breakdown:
Section |  min time  |  avg time  |  max time  |%varavg| %total
---------------------------------------------------------------
Pair    | 0.00071222 | 0.0010692  | 0.0020856  |   0.9 |  0.15
Bond    | 0.10077    | 0.13358    | 0.17091    |   3.6 | 18.74
Neigh   | 0.0006481  | 0.00084667 | 0.0011644  |   0.0 |  0.12
Comm    | 0.25067    | 0.30117    | 0.34929    |   4.2 | 42.24
Output  | 0.1603     | 0.19348    | 0.22327    |   4.3 | 27.14
Modify  | 0.016129   | 0.045398   | 0.0758     |   7.9 |  6.37
Other   |            | 0.0374     |            |       |  5.25

Nlocal:          312.5 ave         367 max         244 min
Histogram: 3 6 2 4 4 13 15 6 8 3
Nghost:        395.719 ave         617 max         196 min
Histogram: 1 11 11 6 10 5 4 6 4 6
Neighs:        45.2812 ave         264 max           0 min
Histogram: 36 8 8 2 4 1 1 0 3 1

Total # of neighbors = 2898
Ave neighs/atom = 0.1449
Ave special neighs/atom = 36.5259
Neighbor list builds = 2
Dangerous builds = 0
System init for write_data ...
Generated 0 of 0 mixed pair_coeff terms from geometric mixing rule
Generated 0 of 0 mixed pair_coeff terms from geometric mixing rule
Setting up Verlet run ...
  Unit style    : metal
  Current step  : 4000
  Time step     : 0.001
Per MPI rank memory allocation (min/avg/max) = 21.23 | 21.24 | 21.26 Mbytes
   Step         TotEng         PotEng          Temp          E_bond        E_dihed           Lx             Ly             Lz      
      4000   201.22023      196.27633      1.9124788      9.2408476      199.13137      400.078        403.55603      384.2384     
      5000   209.86307      204.71238      1.9924714      10.85198       210.7845       400.60044      404.22588      380.39602    
Loop time of 0.75774 on 64 procs for 1000 steps with 20000 atoms

Performance: 114.023 ns/day, 0.210 hours/ns, 1319.714 timesteps/s, 26.394 Matom-step/s
99.3% CPU use with 64 MPI tasks x 1 OpenMP threads

MPI task timing breakdown:
Section |  min time  |  avg time  |  max time  |%varavg| %total
---------------------------------------------------------------
Pair    | 0.00073966 | 0.0011257  | 0.0023785  |   1.1 |  0.15
Bond    | 0.099416   | 0.13334    | 0.1713     |   3.7 | 17.60
Neigh   | 0.00059188 | 0.00083019 | 0.0013389  |   0.0 |  0.11
Comm    | 0.26803    | 0.3087     | 0.33769    |   2.9 | 40.74
Output  | 0.18621    | 0.23124    | 0.27148    |   5.2 | 30.52
Modify  | 0.017223   | 0.034223   | 0.06338    |   5.2 |  4.52
Other   |            | 0.04828    |            |       |  6.37

Nlocal:          312.5 ave         364 max         246 min
Histogram: 3 5 4 2 8 8 14 9 8 3
Nghost:        400.578 ave         624 max         195 min
Histogram: 1 9 11 9 8 5 5 6 4 6
Neighs:        55.0625 ave         314 max           0 min
Histogram: 34 10 6 4 3 2 1 1 1 2

Total # of neighbors = 3524
Ave neighs/atom = 0.1762
Ave special neighs/atom = 36.5259
Neighbor list builds = 2
Dangerous builds = 0
System init for write_data ...
Generated 0 of 0 mixed pair_coeff terms from geometric mixing rule
Generated 0 of 0 mixed pair_coeff terms from geometric mixing rule
Setting up Verlet run ...
  Unit style    : metal
  Current step  : 5000
  Time step     : 0.001
Per MPI rank memory allocation (min/avg/max) = 21.23 | 21.24 | 21.26 Mbytes
   Step         TotEng         PotEng          Temp          E_bond        E_dihed           Lx             Ly             Lz      
      5000   209.90443      204.75375      1.9924714      10.893036      210.78484      400.71299      404.33077      380.39602    
      6000   216.34239      211.6761       1.8050885      11.886743      222.94611      401.3191       404.86299      376.59206    
Loop time of 0.82151 on 64 procs for 1000 steps with 20000 atoms

Performance: 105.172 ns/day, 0.228 hours/ns, 1217.271 timesteps/s, 24.345 Matom-step/s
99.3% CPU use with 64 MPI tasks x 1 OpenMP threads

MPI task timing breakdown:
Section |  min time  |  avg time  |  max time  |%varavg| %total
---------------------------------------------------------------
Pair    | 0.00075458 | 0.0011751  | 0.0024224  |   1.2 |  0.14
Bond    | 0.099513   | 0.13333    | 0.17199    |   3.6 | 16.23
Neigh   | 0.00063406 | 0.00085473 | 0.0011612  |   0.0 |  0.10
Comm    | 0.27583    | 0.32247    | 0.35039    |   2.9 | 39.25
Output  | 0.21495    | 0.26741    | 0.31595    |   5.7 | 32.55
Modify  | 0.014671   | 0.039495   | 0.071182   |   5.7 |  4.81
Other   |            | 0.05676    |            |       |  6.91

Nlocal:          312.5 ave         364 max         246 min
Histogram: 3 5 4 3 5 14 10 9 8 3
Nghost:        403.812 ave         626 max         197 min
Histogram: 1 9 10 9 9 5 5 6 4 6
Neighs:        63.7188 ave         344 max           0 min
Histogram: 34 7 9 4 2 3 0 2 1 2

Total # of neighbors = 4078
Ave neighs/atom = 0.2039
Ave special neighs/atom = 36.5259
Neighbor list builds = 2
Dangerous builds = 0
System init for write_data ...
Generated 0 of 0 mixed pair_coeff terms from geometric mixing rule
Generated 0 of 0 mixed pair_coeff terms from geometric mixing rule
Setting up Verlet run ...
  Unit style    : metal
  Current step  : 6000
  Time step     : 0.001
Per MPI rank memory allocation (min/avg/max) = 21.23 | 21.24 | 21.26 Mbytes
   Step         TotEng         PotEng          Temp          E_bond        E_dihed           Lx             Ly             Lz      
      6000   216.38365      211.71736      1.8050885      11.927634      222.9465       401.49007      405.00329      376.59206    
      7000   226.43112      221.62303      1.8599411      13.807321      236.43445      402.02018      405.46667      372.82614    
Loop time of 0.516691 on 64 procs for 1000 steps with 20000 atoms

Performance: 167.218 ns/day, 0.144 hours/ns, 1935.395 timesteps/s, 38.708 Matom-step/s
99.3% CPU use with 64 MPI tasks x 1 OpenMP threads

MPI task timing breakdown:
Section |  min time  |  avg time  |  max time  |%varavg| %total
---------------------------------------------------------------
Pair    | 0.0007252  | 0.0011527  | 0.002461   |   1.2 |  0.22
Bond    | 0.099308   | 0.13302    | 0.17162    |   3.6 | 25.74
Neigh   | 0.00056205 | 0.00072814 | 0.00096304 |   0.0 |  0.14
Comm    | 0.12603    | 0.159      | 0.18322    |   3.8 | 30.77
Output  | 0.13316    | 0.15961    | 0.18618    |   3.9 | 30.89
Modify  | 0.012247   | 0.02951    | 0.054336   |   5.4 |  5.71
Other   |            | 0.03367    |            |       |  6.52

Nlocal:          312.5 ave         363 max         253 min
Histogram: 4 6 3 2 11 9 11 8 5 5
Nghost:        406.344 ave         630 max         202 min
Histogram: 1 9 11 9 8 6 5 5 4 6
Neighs:         71.875 ave         368 max           0 min
Histogram: 33 6 12 3 1 2 2 2 1 2

Total # of neighbors = 4600
Ave neighs/atom = 0.23
Ave special neighs/atom = 36.5259
Neighbor list builds = 2
Dangerous builds = 0
System init for write_data ...
Generated 0 of 0 mixed pair_coeff terms from geometric mixing rule
Generated 0 of 0 mixed pair_coeff terms from geometric mixing rule
Setting up Verlet run ...
  Unit style    : metal
  Current step  : 7000
  Time step     : 0.001
Per MPI rank memory allocation (min/avg/max) = 21.23 | 21.24 | 21.26 Mbytes
   Step         TotEng         PotEng          Temp          E_bond        E_dihed           Lx             Ly             Lz      
      7000   226.47175      221.66366      1.8599411      13.847557      236.43488      402.17428      405.60312      372.82614    
      8000   235.79125      231.6073       1.6185014      15.001947      250.89039      402.58893      405.99144      369.09788    
Loop time of 0.638029 on 64 procs for 1000 steps with 20000 atoms

Performance: 135.417 ns/day, 0.177 hours/ns, 1567.326 timesteps/s, 31.347 Matom-step/s
99.2% CPU use with 64 MPI tasks x 1 OpenMP threads

MPI task timing breakdown:
Section |  min time  |  avg time  |  max time  |%varavg| %total
---------------------------------------------------------------
Pair    | 0.00074157 | 0.0011978  | 0.0026412  |   1.3 |  0.19
Bond    | 0.098931   | 0.13317    | 0.17231    |   3.6 | 20.87
Neigh   | 0.00062383 | 0.00081589 | 0.0010599  |   0.0 |  0.13
Comm    | 0.22102    | 0.25688    | 0.28085    |   2.8 | 40.26
Output  | 0.15022    | 0.17955    | 0.20665    |   3.9 | 28.14
Modify  | 0.01337    | 0.031739   | 0.054061   |   5.2 |  4.97
Other   |            | 0.03468    |            |       |  5.44

Nlocal:          312.5 ave         365 max         253 min
Histogram: 6 3 3 4 9 10 12 7 6 4
Nghost:        409.156 ave         632 max         201 min
Histogram: 1 8 11 8 7 9 4 6 4 6
Neighs:        80.3906 ave         390 max           0 min
Histogram: 32 6 11 4 2 1 3 1 2 2

Total # of neighbors = 5145
Ave neighs/atom = 0.25725
Ave special neighs/atom = 36.5259
Neighbor list builds = 2
Dangerous builds = 0
System init for write_data ...
Generated 0 of 0 mixed pair_coeff terms from geometric mixing rule
Generated 0 of 0 mixed pair_coeff terms from geometric mixing rule
Setting up Verlet run ...
  Unit style    : metal
  Current step  : 8000
  Time step     : 0.001
Per MPI rank memory allocation (min/avg/max) = 21.23 | 21.24 | 21.26 Mbytes
   Step         TotEng         PotEng          Temp          E_bond        E_dihed           Lx             Ly             Lz      
      8000   235.83071      231.64677      1.6185014      15.040962      250.89087      402.7369       406.08112      369.09788    
      9000   247.64962      243.75769      1.5055396      17.056254      266.76612      403.56597      406.39607      365.4069     
Loop time of 0.824061 on 64 procs for 1000 steps with 20000 atoms

Performance: 104.847 ns/day, 0.229 hours/ns, 1213.503 timesteps/s, 24.270 Matom-step/s
99.3% CPU use with 64 MPI tasks x 1 OpenMP threads

MPI task timing breakdown:
Section |  min time  |  avg time  |  max time  |%varavg| %total
---------------------------------------------------------------
Pair    | 0.0007458  | 0.0012797  | 0.0027558  |   1.4 |  0.16
Bond    | 0.099342   | 0.13356    | 0.1726     |   3.6 | 16.21
Neigh   | 0.00065095 | 0.00091134 | 0.0012595  |   0.0 |  0.11
Comm    | 0.28501    | 0.33472    | 0.36288    |   3.0 | 40.62
Output  | 0.20757    | 0.2585     | 0.30546    |   5.7 | 31.37
Modify  | 0.01635    | 0.040049   | 0.075457   |   6.2 |  4.86
Other   |            | 0.05504    |            |       |  6.68

Nlocal:          312.5 ave         366 max         257 min
Histogram: 5 6 4 5 8 10 12 6 3 5
Nghost:        412.047 ave         643 max         206 min
Histogram: 2 8 11 8 9 6 5 6 4 5
Neighs:        89.3594 ave         438 max           0 min
Histogram: 32 4 13 4 2 1 2 4 1 1

Total # of neighbors = 5719
Ave neighs/atom = 0.28595
Ave special neighs/atom = 36.5259
Neighbor list builds = 2
Dangerous builds = 0
System init for write_data ...
Generated 0 of 0 mixed pair_coeff terms from geometric mixing rule
Generated 0 of 0 mixed pair_coeff terms from geometric mixing rule
Setting up Verlet run ...
  Unit style    : metal
  Current step  : 9000
  Time step     : 0.001
Per MPI rank memory allocation (min/avg/max) = 21.23 | 21.24 | 21.26 Mbytes
   Step         TotEng         PotEng          Temp          E_bond        E_dihed           Lx             Ly             Lz      
      9000   247.68956      243.79763      1.5055396      17.09571       266.76665      403.70924      406.44151      365.4069     
     10000   262.76757      258.97936      1.4654156      18.861014      283.30861      404.63197      406.76179      361.75283    
Loop time of 0.817592 on 64 procs for 1000 steps with 20000 atoms

Performance: 105.676 ns/day, 0.227 hours/ns, 1223.104 timesteps/s, 24.462 Matom-step/s
99.2% CPU use with 64 MPI tasks x 1 OpenMP threads

MPI task timing breakdown:
Section |  min time  |  avg time  |  max time  |%varavg| %total
---------------------------------------------------------------
Pair    | 0.00073385 | 0.0013086  | 0.0028642  |   1.5 |  0.16
Bond    | 0.10008    | 0.1335     | 0.17211    |   3.7 | 16.33
Neigh   | 0.0006792  | 0.00098411 | 0.0013924  |   0.0 |  0.12
Comm    | 0.28853    | 0.32965    | 0.35824    |   2.8 | 40.32
Output  | 0.20923    | 0.25962    | 0.30545    |   5.5 | 31.75
Modify  | 0.019174   | 0.038546   | 0.065327   |   5.6 |  4.71
Other   |            | 0.05398    |            |       |  6.60

Nlocal:          312.5 ave         364 max         258 min
Histogram: 4 6 4 7 8 8 10 9 3 5
Nghost:        415.781 ave         643 max         211 min
Histogram: 2 7 12 7 9 6 6 5 5 5
Neighs:        98.3906 ave         459 max           0 min
Histogram: 32 3 11 7 2 1 1 4 2 1

Total # of neighbors = 6297
Ave neighs/atom = 0.31485
Ave special neighs/atom = 36.5259
Neighbor list builds = 2
Dangerous builds = 0
System init for write_data ...
Generated 0 of 0 mixed pair_coeff terms from geometric mixing rule
Generated 0 of 0 mixed pair_coeff terms from geometric mixing rule
Setting up Verlet run ...
  Unit style    : metal
  Current step  : 10000
  Time step     : 0.001
Per MPI rank memory allocation (min/avg/max) = 21.23 | 21.24 | 21.26 Mbytes
   Step         TotEng         PotEng          Temp          E_bond        E_dihed           Lx             Ly             Lz      
     10000   262.80648      259.01827      1.4654156      18.899405      283.30918      404.6969       406.77955      361.75283    
     11000   250.70248      247.94077      1.0683299      14.961157      277.98949      405.11191      406.89917      361.75283    
Loop time of 0.511709 on 64 procs for 1000 steps with 20000 atoms

Performance: 168.846 ns/day, 0.142 hours/ns, 1954.236 timesteps/s, 39.085 Matom-step/s
99.2% CPU use with 64 MPI tasks x 1 OpenMP threads

MPI task timing breakdown:
Section |  min time  |  avg time  |  max time  |%varavg| %total
---------------------------------------------------------------
Pair    | 0.00073996 | 0.0012737  | 0.0028764  |   1.6 |  0.25
Bond    | 0.10072    | 0.13321    | 0.17106    |   3.6 | 26.03
Neigh   | 0.00032575 | 0.00039498 | 0.0004711  |   0.0 |  0.08
Comm    | 0.12213    | 0.16846    | 0.19442    |   3.7 | 32.92
Output  | 0.12814    | 0.15387    | 0.1787     |   3.8 | 30.07
Modify  | 0.0081397  | 0.022749   | 0.045033   |   5.9 |  4.45
Other   |            | 0.03174    |            |       |  6.20

Nlocal:          312.5 ave         365 max         257 min
Histogram: 4 5 6 8 7 6 10 11 3 4
Nghost:        416.531 ave         646 max         211 min
Histogram: 2 7 12 7 9 6 7 5 4 5
Neighs:        100.984 ave         458 max           0 min
Histogram: 31 5 9 7 3 1 0 5 2 1

Total # of neighbors = 6463
Ave neighs/atom = 0.32315
Ave special neighs/atom = 36.5259
Neighbor list builds = 1
Dangerous builds = 0
System init for write_data ...
Generated 0 of 0 mixed pair_coeff terms from geometric mixing rule
Generated 0 of 0 mixed pair_coeff terms from geometric mixing rule
Setting up Verlet run ...
  Unit style    : metal
  Current step  : 11000
  Time step     : 0.001
Per MPI rank memory allocation (min/avg/max) = 21.23 | 21.24 | 21.26 Mbytes
   Step         TotEng         PotEng          Temp          E_bond        E_dihed           Lx             Ly             Lz      
     11000   250.70248      247.94077      1.0683299      14.961157      277.98949      405.20318      406.88909      361.75283    
     12000   239.26516      236.53766      1.0550943      14.77663       272.78996      405.62932      406.82835      361.75283    
Loop time of 0.764889 on 64 procs for 1000 steps with 20000 atoms

Performance: 112.958 ns/day, 0.212 hours/ns, 1307.380 timesteps/s, 26.148 Matom-step/s
99.3% CPU use with 64 MPI tasks x 1 OpenMP threads

MPI task timing breakdown:
Section |  min time  |  avg time  |  max time  |%varavg| %total
---------------------------------------------------------------
Pair    | 0.00073777 | 0.0013268  | 0.0029449  |   1.6 |  0.17
Bond    | 0.10185    | 0.13352    | 0.17121    |   3.6 | 17.46
Neigh   | 0.00031961 | 0.00046463 | 0.0006957  |   0.0 |  0.06
Comm    | 0.28693    | 0.33286    | 0.3585     |   2.7 | 43.52
Output  | 0.17993    | 0.2216     | 0.25857    |   4.9 | 28.97
Modify  | 0.010114   | 0.030693   | 0.061002   |   6.1 |  4.01
Other   |            | 0.04442    |            |       |  5.81

Nlocal:          312.5 ave         367 max         256 min
Histogram: 4 5 7 6 9 6 11 9 2 5
Nghost:         416.25 ave         647 max         211 min
Histogram: 4 5 12 8 8 6 7 5 4 5
Neighs:            104 ave         476 max           0 min
Histogram: 31 5 9 7 3 1 1 4 2 1

Total # of neighbors = 6656
Ave neighs/atom = 0.3328
Ave special neighs/atom = 36.5259
Neighbor list builds = 1
Dangerous builds = 0
System init for write_data ...
Generated 0 of 0 mixed pair_coeff terms from geometric mixing rule
Generated 0 of 0 mixed pair_coeff terms from geometric mixing rule
Setting up Verlet run ...
  Unit style    : metal
  Current step  : 12000
  Time step     : 0.001
Per MPI rank memory allocation (min/avg/max) = 21.23 | 21.24 | 21.26 Mbytes
   Step         TotEng         PotEng          Temp          E_bond        E_dihed           Lx             Ly             Lz      
     12000   239.26516      236.53766      1.0550943      14.77663       272.78996      405.70098      406.79803      361.75283    
     13000   230.63575      227.92148      1.0499772      13.691108      268.1599       406.20622      406.63618      361.75283    
Loop time of 0.845202 on 64 procs for 1000 steps with 20000 atoms

Performance: 102.224 ns/day, 0.235 hours/ns, 1183.149 timesteps/s, 23.663 Matom-step/s
99.3% CPU use with 64 MPI tasks x 1 OpenMP threads

MPI task timing breakdown:
Section |  min time  |  avg time  |  max time  |%varavg| %total
---------------------------------------------------------------
Pair    | 0.00072744 | 0.0013612  | 0.0031076  |   1.7 |  0.16
Bond    | 0.10246    | 0.13345    | 0.17199    |   3.6 | 15.79
Neigh   | 0.00034958 | 0.00046249 | 0.00075506 |   0.0 |  0.05
Comm    | 0.30106    | 0.34623    | 0.37763    |   2.9 | 40.96
Output  | 0.20704    | 0.26669    | 0.31672    |   6.2 | 31.55
Modify  | 0.011976   | 0.039181   | 0.078553   |   7.1 |  4.64
Other   |            | 0.05782    |            |       |  6.84

Nlocal:          312.5 ave         367 max         255 min
Histogram: 3 6 4 8 9 7 10 10 2 5
Nghost:        416.453 ave         650 max         210 min
Histogram: 5 4 12 6 10 7 6 5 4 5
Neighs:        107.438 ave         481 max           0 min
Histogram: 31 6 7 8 1 3 0 4 2 2

Total # of neighbors = 6876
Ave neighs/atom = 0.3438
Ave special neighs/atom = 36.5259
Neighbor list builds = 1
Dangerous builds = 0
System init for write_data ...
Generated 0 of 0 mixed pair_coeff terms from geometric mixing rule
Generated 0 of 0 mixed pair_coeff terms from geometric mixing rule
Setting up Verlet run ...
  Unit style    : metal
  Current step  : 13000
  Time step     : 0.001
Per MPI rank memory allocation (min/avg/max) = 21.23 | 21.24 | 21.26 Mbytes
   Step         TotEng         PotEng          Temp          E_bond        E_dihed           Lx             Ly             Lz      
     13000   230.63575      227.92148      1.0499772      13.691108      268.1599       406.24996      406.61619      361.75283    
     14000   223.69138      221.07852      1.0107495      12.751049      263.27103      406.24996      406.61619      361.75283    
Loop time of 0.815453 on 64 procs for 1000 steps with 20000 atoms

Performance: 105.953 ns/day, 0.227 hours/ns, 1226.313 timesteps/s, 24.526 Matom-step/s
99.3% CPU use with 64 MPI tasks x 1 OpenMP threads

MPI task timing breakdown:
Section |  min time  |  avg time  |  max time  |%varavg| %total
---------------------------------------------------------------
Pair    | 0.00073627 | 0.0013698  | 0.0031103  |   1.7 |  0.17
Bond    | 0.10319    | 0.13346    | 0.17297    |   3.6 | 16.37
Neigh   | 0          | 0          | 0          |   0.0 |  0.00
Comm    | 0.28334    | 0.33596    | 0.36575    |   3.1 | 41.20
Output  | 0.19633    | 0.25022    | 0.29915    |   6.1 | 30.68
Modify  | 0.010591   | 0.037791   | 0.079848   |   7.3 |  4.63
Other   |            | 0.05665    |            |       |  6.95

Nlocal:          312.5 ave         367 max         255 min
Histogram: 3 6 4 8 9 7 10 10 2 5
Nghost:        416.531 ave         650 max         211 min
Histogram: 5 4 12 6 10 7 6 5 4 5
Neighs:        107.688 ave         481 max           0 min
Histogram: 31 6 7 8 1 3 0 4 2 2

Total # of neighbors = 6892
Ave neighs/atom = 0.3446
Ave special neighs/atom = 36.5259
Neighbor list builds = 0
Dangerous builds = 0
System init for write_data ...
Generated 0 of 0 mixed pair_coeff terms from geometric mixing rule
Generated 0 of 0 mixed pair_coeff terms from geometric mixing rule
Setting up Verlet run ...
  Unit style    : metal
  Current step  : 14000
  Time step     : 0.001
Per MPI rank memory allocation (min/avg/max) = 21.23 | 21.24 | 21.26 Mbytes
   Step         TotEng         PotEng          Temp          E_bond        E_dihed           Lx             Ly             Lz      
     14000   223.69138      221.07852      1.0107495      12.751049      263.27103      406.79616      406.55969      361.75283    
     15000   216.43759      213.76047      1.0356062      12.359519      259.34839      407.28588      406.65271      361.75283    
Loop time of 0.527748 on 64 procs for 1000 steps with 20000 atoms

Performance: 163.714 ns/day, 0.147 hours/ns, 1894.842 timesteps/s, 37.897 Matom-step/s
99.2% CPU use with 64 MPI tasks x 1 OpenMP threads

MPI task timing breakdown:
Section |  min time  |  avg time  |  max time  |%varavg| %total
---------------------------------------------------------------
Pair    | 0.00072102 | 0.0013189  | 0.0030178  |   1.7 |  0.25
Bond    | 0.10253    | 0.13311    | 0.17259    |   3.7 | 25.22
Neigh   | 0.00035622 | 0.00049287 | 0.00073573 |   0.0 |  0.09
Comm    | 0.15708    | 0.19829    | 0.22663    |   3.4 | 37.57
Output  | 0.1243     | 0.14628    | 0.16739    |   3.3 | 27.72
Modify  | 0.0088496  | 0.02029    | 0.042518   |   6.1 |  3.84
Other   |            | 0.02797    |            |       |  5.30

Nlocal:          312.5 ave         369 max         253 min
Histogram: 4 5 3 10 8 8 9 10 3 4
Nghost:        417.062 ave         658 max         208 min
Histogram: 5 4 13 6 9 7 7 4 5 4
Neighs:        112.797 ave         496 max           0 min
Histogram: 31 6 7 7 2 2 2 3 1 3

Total # of neighbors = 7219
Ave neighs/atom = 0.36095
Ave special neighs/atom = 36.5259
Neighbor list builds = 1
Dangerous builds = 0
System init for write_data ...
Generated 0 of 0 mixed pair_coeff terms from geometric mixing rule
Generated 0 of 0 mixed pair_coeff terms from geometric mixing rule
Setting up Verlet run ...
  Unit style    : metal
  Current step  : 15000
  Time step     : 0.001
Per MPI rank memory allocation (min/avg/max) = 21.23 | 21.24 | 21.26 Mbytes
   Step         TotEng         PotEng          Temp          E_bond        E_dihed           Lx             Ly             Lz      
     15000   216.43759      213.76047      1.0356062      12.359519      259.34839      407.31878      406.65594      361.75283    
     16000   209.3468       206.88005      0.9542282      12.31916       256.43585      407.31878      406.65594      361.75283    
Loop time of 0.682246 on 64 procs for 1000 steps with 20000 atoms

Performance: 126.641 ns/day, 0.190 hours/ns, 1465.747 timesteps/s, 29.315 Matom-step/s
99.3% CPU use with 64 MPI tasks x 1 OpenMP threads

MPI task timing breakdown:
Section |  min time  |  avg time  |  max time  |%varavg| %total
---------------------------------------------------------------
Pair    | 0.00071485 | 0.0013588  | 0.0031429  |   1.8 |  0.20
Bond    | 0.10292    | 0.13321    | 0.17356    |   3.7 | 19.53
Neigh   | 0          | 0          | 0          |   0.0 |  0.00
Comm    | 0.20223    | 0.25879    | 0.28927    |   3.4 | 37.93
Output  | 0.16842    | 0.21208    | 0.24732    |   4.9 | 31.09
Modify  | 0.012535   | 0.034322   | 0.076086   |   7.0 |  5.03
Other   |            | 0.04248    |            |       |  6.23

Nlocal:          312.5 ave         369 max         253 min
Histogram: 4 5 3 10 8 8 9 9 4 4
Nghost:            417 ave         658 max         207 min
Histogram: 5 4 13 6 9 7 7 4 5 4
Neighs:        113.047 ave         497 max           0 min
Histogram: 31 6 7 7 3 1 2 3 1 3

Total # of neighbors = 7235
Ave neighs/atom = 0.36175
Ave special neighs/atom = 36.5259
Neighbor list builds = 0
Dangerous builds = 0
System init for write_data ...
Generated 0 of 0 mixed pair_coeff terms from geometric mixing rule
Generated 0 of 0 mixed pair_coeff terms from geometric mixing rule
Setting up Verlet run ...
  Unit style    : metal
  Current step  : 16000
  Time step     : 0.001
Per MPI rank memory allocation (min/avg/max) = 21.23 | 21.24 | 21.26 Mbytes
   Step         TotEng         PotEng          Temp          E_bond        E_dihed           Lx             Ly             Lz      
     16000   209.3468       206.88005      0.9542282      12.31916       256.43585      407.76471      406.67164      361.75283    
     17000   204.80196      202.25063      0.98694983     11.870361      253.43383      407.84455      406.54923      361.75283    
Loop time of 0.783616 on 64 procs for 1000 steps with 20000 atoms

Performance: 110.258 ns/day, 0.218 hours/ns, 1276.135 timesteps/s, 25.523 Matom-step/s
99.2% CPU use with 64 MPI tasks x 1 OpenMP threads

MPI task timing breakdown:
Section |  min time  |  avg time  |  max time  |%varavg| %total
---------------------------------------------------------------
Pair    | 0.00073654 | 0.0013864  | 0.0033629  |   1.9 |  0.18
Bond    | 0.10317    | 0.13347    | 0.17416    |   3.8 | 17.03
Neigh   | 0.0003809  | 0.00049096 | 0.00069702 |   0.0 |  0.06
Comm    | 0.28353    | 0.33899    | 0.37387    |   3.6 | 43.26
Output  | 0.18618    | 0.22872    | 0.26669    |   5.0 | 29.19
Modify  | 0.01096    | 0.034923   | 0.072016   |   8.8 |  4.46
Other   |            | 0.04564    |            |       |  5.82

Nlocal:          312.5 ave         374 max         252 min
Histogram: 4 5 6 6 11 10 8 7 3 4
Nghost:        417.312 ave         655 max         208 min
Histogram: 5 4 10 9 9 7 7 3 6 4
Neighs:        117.578 ave         502 max           0 min
Histogram: 31 6 8 5 2 3 2 2 1 4

Total # of neighbors = 7525
Ave neighs/atom = 0.37625
Ave special neighs/atom = 36.5259
Neighbor list builds = 1
Dangerous builds = 0
System init for write_data ...
Generated 0 of 0 mixed pair_coeff terms from geometric mixing rule
Generated 0 of 0 mixed pair_coeff terms from geometric mixing rule
Setting up Verlet run ...
  Unit style    : metal
  Current step  : 17000
  Time step     : 0.001
Per MPI rank memory allocation (min/avg/max) = 21.23 | 21.24 | 21.26 Mbytes
   Step         TotEng         PotEng          Temp          E_bond        E_dihed           Lx             Ly             Lz      
     17000   204.80196      202.25063      0.98694983     11.870361      253.43383      407.76735      406.50998      361.75283    
     18000   198.7778       196.28148      0.96566773     11.91961       251.25571      407.90929      406.39101      361.75283    
Loop time of 0.540057 on 64 procs for 1000 steps with 20000 atoms

Performance: 159.983 ns/day, 0.150 hours/ns, 1851.656 timesteps/s, 37.033 Matom-step/s
99.3% CPU use with 64 MPI tasks x 1 OpenMP threads

MPI task timing breakdown:
Section |  min time  |  avg time  |  max time  |%varavg| %total
---------------------------------------------------------------
Pair    | 0.00071795 | 0.0013511  | 0.0032517  |   1.9 |  0.25
Bond    | 0.10344    | 0.13312    | 0.1712     |   3.8 | 24.65
Neigh   | 0.00035958 | 0.0004516  | 0.00065909 |   0.0 |  0.08
Comm    | 0.14626    | 0.19261    | 0.22292    |   3.5 | 35.66
Output  | 0.12947    | 0.15556    | 0.18053    |   3.8 | 28.81
Modify  | 0.0088116  | 0.024827   | 0.052043   |   5.8 |  4.60
Other   |            | 0.03214    |            |       |  5.95

Nlocal:          312.5 ave         374 max         249 min
Histogram: 4 4 5 9 9 9 8 8 4 4
Nghost:        416.969 ave         654 max         208 min
Histogram: 5 3 13 7 9 7 6 4 6 4
Neighs:        119.922 ave         519 max           0 min
Histogram: 31 6 8 6 1 3 2 2 1 4

Total # of neighbors = 7675
Ave neighs/atom = 0.38375
Ave special neighs/atom = 36.5259
Neighbor list builds = 1
Dangerous builds = 0
System init for write_data ...
Generated 0 of 0 mixed pair_coeff terms from geometric mixing rule
Generated 0 of 0 mixed pair_coeff terms from geometric mixing rule
Setting up Verlet run ...
  Unit style    : metal
  Current step  : 18000
  Time step     : 0.001
Per MPI rank memory allocation (min/avg/max) = 21.23 | 21.24 | 21.26 Mbytes
   Step         TotEng         PotEng          Temp          E_bond        E_dihed           Lx             Ly             Lz      
     18000   198.7778       196.28148      0.96566773     11.91961       251.25571      407.92125      406.41132      361.75283    
     19000   192.26514      189.87342      0.92520425     12.176377      249.41805      408.03433      406.6017       361.75283    
Loop time of 0.75555 on 64 procs for 1000 steps with 20000 atoms

Performance: 114.354 ns/day, 0.210 hours/ns, 1323.540 timesteps/s, 26.471 Matom-step/s
99.2% CPU use with 64 MPI tasks x 1 OpenMP threads

MPI task timing breakdown:
Section |  min time  |  avg time  |  max time  |%varavg| %total
---------------------------------------------------------------
Pair    | 0.00073879 | 0.0013941  | 0.0032934  |   1.9 |  0.18
Bond    | 0.10363    | 0.13348    | 0.17166    |   3.9 | 17.67
Neigh   | 0.0006395  | 0.00094256 | 0.0014214  |   0.0 |  0.12
Comm    | 0.28709    | 0.33206    | 0.36432    |   3.0 | 43.95
Output  | 0.17183    | 0.21281    | 0.24739    |   4.8 | 28.17
Modify  | 0.010641   | 0.032954   | 0.061193   |   7.5 |  4.36
Other   |            | 0.0419     |            |       |  5.55

Nlocal:          312.5 ave         377 max         245 min
Histogram: 4 4 4 9 11 9 6 10 3 4
Nghost:        417.406 ave         654 max         204 min
Histogram: 4 4 12 8 9 6 6 5 5 5
Neighs:        121.625 ave         521 max           0 min
Histogram: 31 7 6 7 1 3 1 3 0 5

Total # of neighbors = 7784
Ave neighs/atom = 0.3892
Ave special neighs/atom = 36.5259
Neighbor list builds = 2
Dangerous builds = 0
System init for write_data ...
Generated 0 of 0 mixed pair_coeff terms from geometric mixing rule
Generated 0 of 0 mixed pair_coeff terms from geometric mixing rule
Setting up Verlet run ...
  Unit style    : metal
  Current step  : 19000
  Time step     : 0.001
Per MPI rank memory allocation (min/avg/max) = 21.23 | 21.24 | 21.26 Mbytes
   Step         TotEng         PotEng          Temp          E_bond        E_dihed           Lx             Ly             Lz      
     19000   192.26514      189.87342      0.92520425     12.176377      249.41805      408.14778      406.70638      361.75283    
     20000   187.98165      185.47547      0.96948117     11.939551      247.31595      408.14778      406.70638      361.75283    
Loop time of 0.809873 on 64 procs for 1000 steps with 20000 atoms

Performance: 106.683 ns/day, 0.225 hours/ns, 1234.761 timesteps/s, 24.695 Matom-step/s
99.2% CPU use with 64 MPI tasks x 1 OpenMP threads

MPI task timing breakdown:
Section |  min time  |  avg time  |  max time  |%varavg| %total
---------------------------------------------------------------
Pair    | 0.00071907 | 0.0014153  | 0.0034245  |   2.0 |  0.17
Bond    | 0.10307    | 0.13346    | 0.17163    |   3.9 | 16.48
Neigh   | 0          | 0          | 0          |   0.0 |  0.00
Comm    | 0.29325    | 0.34729    | 0.3793     |   3.3 | 42.88
Output  | 0.19311    | 0.23981    | 0.28118    |   5.4 | 29.61
Modify  | 0.011542   | 0.038885   | 0.078175   |   8.2 |  4.80
Other   |            | 0.04902    |            |       |  6.05

Nlocal:          312.5 ave         377 max         243 min
Histogram: 3 5 4 7 13 9 6 10 3 4
Nghost:        417.234 ave         653 max         204 min
Histogram: 4 4 12 8 8 7 6 5 5 5
Neighs:        122.406 ave         523 max           0 min
Histogram: 31 7 6 7 1 3 1 3 0 5

Total # of neighbors = 7834
Ave neighs/atom = 0.3917
Ave special neighs/atom = 36.5259
Neighbor list builds = 0
Dangerous builds = 0
System init for write_data ...
Generated 0 of 0 mixed pair_coeff terms from geometric mixing rule
Total wall time: 0:00:31
LAMMPS (3 Nov 2022)
OMP_NUM_THREADS environment is not set. Defaulting to 1 thread. (src/comm.cpp:98)
  using 1 OpenMP thread(s) per MPI task
Reading data file ...
  triclinic box = (0 0 0) to (400 400 400) with tilt (0 0 0)
  4 by 4 by 4 MPI processor grid
  reading atoms ...
  19998 atoms
  scanning bonds ...
  10 = max bonds/atom
  scanning dihedrals ...
  10 = max dihedrals/atom
  reading bonds ...
  58405 bonds
  reading dihedrals ...
  56666 dihedrals
Finding 1-2 1-3 1-4 neighbors ...
  special bond factors lj:    0        0        0       
  special bond factors coul:  0        0        0       
    10 = max # of 1-2 neighbors
    54 = max # of 1-3 neighbors
   340 = max # of 1-4 neighbors
    68 = max # of special neighbors
  special bonds CPU = 0.008 seconds
  read_data CPU = 0.838 seconds
17436 atoms in group 1
Generated 0 of 0 mixed pair_coeff terms from geometric mixing rule
Neighbor list info ...
  update: every = 1 steps, delay = 0 steps, check = yes
  max neighbors/atom: 2000, page size: 100000
  master list distance cutoff = 18
  ghost atom cutoff = 18
  binsize = 9, bins = 45 45 45
  1 neighbor lists, perpetual/occasional/extra = 1 0 0
  (1) pair lj/cut, perpetual
      attributes: half, newton on
      pair build: half/bin/newton/tri
      stencil: half/bin/3d/tri
      bin: standard
Setting up Verlet run ...
  Unit style    : metal
  Current step  : 0
  Time step     : 0.001
Per MPI rank memory allocation (min/avg/max) = 22.35 | 22.37 | 22.38 Mbytes
   Step         TotEng         PotEng          Temp          E_bond        E_dihed           Lx             Ly             Lz      
         0   125.36727      125.36727      0              1.2367676e-22  125.3867       398.46552      397.44378      400          
      1000   132.8003       126.88694      2.2877296      3.7604096      124.13827      400.86791      397.83267      396          
Loop time of 5.47575 on 64 procs for 1000 steps with 19998 atoms

Performance: 15.779 ns/day, 1.521 hours/ns, 182.623 timesteps/s, 3.652 Matom-step/s
98.1% CPU use with 64 MPI tasks x 1 OpenMP threads

MPI task timing breakdown:
Section |  min time  |  avg time  |  max time  |%varavg| %total
---------------------------------------------------------------
Pair    | 0.00052825 | 0.0009983  | 0.0017256  |   0.0 |  0.02
Bond    | 0.070615   | 0.13259    | 0.16512    |   5.4 |  2.42
Neigh   | 0.00067937 | 0.00093719 | 0.0012272  |   0.0 |  0.02
Comm    | 0.23182    | 0.27864    | 0.34306    |   4.3 |  5.09
Output  | 1.5826     | 4.1932     | 5.0245     |  68.8 | 76.58
Modify  | 0.01838    | 0.031164   | 0.059855   |   5.6 |  0.57
Other   |            | 0.8382     |            |       | 15.31

Nlocal:        312.469 ave         382 max         165 min
Histogram: 1 1 1 0 12 4 7 18 15 5
Nghost:        384.578 ave         699 max         205 min
Histogram: 7 9 17 6 10 3 6 2 2 2
Neighs:        30.2656 ave         198 max           0 min
Histogram: 44 4 5 1 1 1 2 4 1 1

Total # of neighbors = 1937
Ave neighs/atom = 0.096859686
Ave special neighs/atom = 35.70007
Neighbor list builds = 2
Dangerous builds = 0
System init for write_data ...
Generated 0 of 0 mixed pair_coeff terms from geometric mixing rule
Generated 0 of 0 mixed pair_coeff terms from geometric mixing rule
Setting up Verlet run ...
  Unit style    : metal
  Current step  : 1000
  Time step     : 0.001
Per MPI rank memory allocation (min/avg/max) = 22.36 | 22.37 | 22.39 Mbytes
   Step         TotEng         PotEng          Temp          E_bond        E_dihed           Lx             Ly             Lz      
      1000   132.83061      126.91725      2.2877296      3.7905122      124.13848      401.13727      397.91884      396          
      2000   134.335        129.08292      2.0318959      4.5508233      127.79524      402.56604      398.33136      392.04       
Loop time of 0.702473 on 64 procs for 1000 steps with 19998 atoms

Performance: 122.994 ns/day, 0.195 hours/ns, 1423.542 timesteps/s, 28.468 Matom-step/s
99.3% CPU use with 64 MPI tasks x 1 OpenMP threads

MPI task timing breakdown:
Section |  min time  |  avg time  |  max time  |%varavg| %total
---------------------------------------------------------------
Pair    | 0.00054255 | 0.0010131  | 0.0017424  |   0.8 |  0.14
Bond    | 0.073841   | 0.13241    | 0.16258    |   5.1 | 18.85
Neigh   | 0.0002964  | 0.00043969 | 0.00057598 |   0.0 |  0.06
Comm    | 0.23506    | 0.28628    | 0.35441    |   4.1 | 40.75
Output  | 0.17363    | 0.21013    | 0.24477    |   4.6 | 29.91
Modify  | 0.013921   | 0.030873   | 0.059904   |   6.8 |  4.39
Other   |            | 0.04133    |            |       |  5.88

Nlocal:        312.469 ave         378 max         167 min
Histogram: 1 1 1 0 8 7 11 16 14 5
Nghost:        387.141 ave         695 max         204 min
Histogram: 7 9 15 7 7 6 7 3 1 2
Neighs:        33.9688 ave         213 max           0 min
Histogram: 45 4 3 2 1 1 1 2 3 2

Total # of neighbors = 2174
Ave neighs/atom = 0.10871087
Ave special neighs/atom = 35.70007
Neighbor list builds = 1
Dangerous builds = 0
System init for write_data ...
Generated 0 of 0 mixed pair_coeff terms from geometric mixing rule
Generated 0 of 0 mixed pair_coeff terms from geometric mixing rule
Setting up Verlet run ...
  Unit style    : metal
  Current step  : 2000
  Time step     : 0.001
Per MPI rank memory allocation (min/avg/max) = 22.36 | 22.37 | 22.39 Mbytes
   Step         TotEng         PotEng          Temp          E_bond        E_dihed           Lx             Ly             Lz      
      2000   134.36114      129.10907      2.0318959      4.5767617      127.79548      403.46328      398.66108      392.04       
      3000   131.18583      126.07298      1.9780336      6.0026295      132.63765      404.38187      398.98943      388.1196     
Loop time of 0.690837 on 64 procs for 1000 steps with 19998 atoms

Performance: 125.066 ns/day, 0.192 hours/ns, 1447.520 timesteps/s, 28.948 Matom-step/s
99.3% CPU use with 64 MPI tasks x 1 OpenMP threads

MPI task timing breakdown:
Section |  min time  |  avg time  |  max time  |%varavg| %total
---------------------------------------------------------------
Pair    | 0.00054022 | 0.0010459  | 0.0019372  |   0.9 |  0.15
Bond    | 0.075858   | 0.13254    | 0.16393    |   5.0 | 19.19
Neigh   | 0.00062226 | 0.00083919 | 0.0010793  |   0.0 |  0.12
Comm    | 0.2392     | 0.28658    | 0.34789    |   4.0 | 41.48
Output  | 0.16652    | 0.19992    | 0.23165    |   4.3 | 28.94
Modify  | 0.016803   | 0.031366   | 0.06236    |   5.9 |  4.54
Other   |            | 0.03854    |            |       |  5.58

Nlocal:        312.469 ave         376 max         174 min
Histogram: 1 0 2 1 7 7 10 16 15 5
Nghost:        391.672 ave         695 max         204 min
Histogram: 6 9 16 6 7 7 7 2 2 2
Neighs:        42.0625 ave         254 max           0 min
Histogram: 42 7 3 2 0 5 0 1 2 2

Total # of neighbors = 2692
Ave neighs/atom = 0.13461346
Ave special neighs/atom = 35.70007
Neighbor list builds = 2
Dangerous builds = 0
System init for write_data ...
Generated 0 of 0 mixed pair_coeff terms from geometric mixing rule
Generated 0 of 0 mixed pair_coeff terms from geometric mixing rule
Setting up Verlet run ...
  Unit style    : metal
  Current step  : 3000
  Time step     : 0.001
Per MPI rank memory allocation (min/avg/max) = 22.36 | 22.37 | 22.39 Mbytes
   Step         TotEng         PotEng          Temp          E_bond        E_dihed           Lx             Ly             Lz      
      3000   131.21652      126.10367      1.9780336      6.0330508      132.63793      404.84883      399.10903      388.1196     
      4000   131.74611      127.36592      1.6945833      6.9536264      139.58068      405.94799      399.56296      384.2384     
Loop time of 0.764785 on 64 procs for 1000 steps with 19998 atoms

Performance: 112.973 ns/day, 0.212 hours/ns, 1307.558 timesteps/s, 26.149 Matom-step/s
99.3% CPU use with 64 MPI tasks x 1 OpenMP threads

MPI task timing breakdown:
Section |  min time  |  avg time  |  max time  |%varavg| %total
---------------------------------------------------------------
Pair    | 0.00056796 | 0.0010984  | 0.0020627  |   1.0 |  0.14
Bond    | 0.081536   | 0.13278    | 0.16342    |   4.8 | 17.36
Neigh   | 0.00066121 | 0.00091089 | 0.0012279  |   0.0 |  0.12
Comm    | 0.25704    | 0.31166    | 0.37226    |   4.2 | 40.75
Output  | 0.19006    | 0.23289    | 0.27248    |   5.0 | 30.45
Modify  | 0.015086   | 0.039051   | 0.073128   |   8.0 |  5.11
Other   |            | 0.04639    |            |       |  6.07

Nlocal:        312.469 ave         376 max         186 min
Histogram: 1 0 3 2 6 7 13 12 15 5
Nghost:        394.969 ave         689 max         203 min
Histogram: 5 10 17 6 3 7 7 5 2 2
Neighs:        50.0625 ave         271 max           0 min
Histogram: 38 9 3 3 1 4 1 0 2 3

Total # of neighbors = 3204
Ave neighs/atom = 0.16021602
Ave special neighs/atom = 35.70007
Neighbor list builds = 2
Dangerous builds = 0
System init for write_data ...
Generated 0 of 0 mixed pair_coeff terms from geometric mixing rule
Generated 0 of 0 mixed pair_coeff terms from geometric mixing rule
Setting up Verlet run ...
  Unit style    : metal
  Current step  : 4000
  Time step     : 0.001
Per MPI rank memory allocation (min/avg/max) = 22.36 | 22.37 | 22.39 Mbytes
   Step         TotEng         PotEng          Temp          E_bond        E_dihed           Lx             Ly             Lz      
      4000   131.77524      127.39506      1.6945833      6.9824522      139.58101      406.26727      399.69023      384.2384     
      5000   137.63363      133.38866      1.642272       7.8319485      147.75847      407.56567      400.11083      380.39602    
Loop time of 0.750052 on 64 procs for 1000 steps with 19998 atoms

Performance: 115.192 ns/day, 0.208 hours/ns, 1333.242 timesteps/s, 26.662 Matom-step/s
99.2% CPU use with 64 MPI tasks x 1 OpenMP threads

MPI task timing breakdown:
Section |  min time  |  avg time  |  max time  |%varavg| %total
---------------------------------------------------------------
Pair    | 0.00060136 | 0.0011286  | 0.0021785  |   1.1 |  0.15
Bond    | 0.085773   | 0.13286    | 0.16332    |   4.6 | 17.71
Neigh   | 0.00070019 | 0.00087773 | 0.0012078  |   0.0 |  0.12
Comm    | 0.25765    | 0.30219    | 0.34967    |   3.7 | 40.29
Output  | 0.18761    | 0.23075    | 0.27155    |   5.2 | 30.76
Modify  | 0.018282   | 0.034538   | 0.061573   |   6.0 |  4.60
Other   |            | 0.04771    |            |       |  6.36

Nlocal:        312.469 ave         373 max         195 min
Histogram: 1 1 1 5 4 9 14 9 12 8
Nghost:            399 ave         674 max         203 min
Histogram: 5 9 12 9 5 7 5 8 2 2
Neighs:        57.1406 ave         327 max           0 min
Histogram: 36 8 7 0 6 2 2 0 1 2

Total # of neighbors = 3657
Ave neighs/atom = 0.18286829
Ave special neighs/atom = 35.70007
Neighbor list builds = 2
Dangerous builds = 0
System init for write_data ...
Generated 0 of 0 mixed pair_coeff terms from geometric mixing rule
Generated 0 of 0 mixed pair_coeff terms from geometric mixing rule
Setting up Verlet run ...
  Unit style    : metal
  Current step  : 5000
  Time step     : 0.001
Per MPI rank memory allocation (min/avg/max) = 22.36 | 22.37 | 22.39 Mbytes
   Step         TotEng         PotEng          Temp          E_bond        E_dihed           Lx             Ly             Lz      
      5000   137.66063      133.41567      1.642272       7.8585993      147.75885      407.68743      400.12972      380.39602    
      6000   141.95168      138.21792      1.4444997      8.6254426      155.87119      408.98863      400.58334      376.59206    
Loop time of 0.788047 on 64 procs for 1000 steps with 19998 atoms

Performance: 109.638 ns/day, 0.219 hours/ns, 1268.959 timesteps/s, 25.377 Matom-step/s
99.3% CPU use with 64 MPI tasks x 1 OpenMP threads

MPI task timing breakdown:
Section |  min time  |  avg time  |  max time  |%varavg| %total
---------------------------------------------------------------
Pair    | 0.00061309 | 0.0011521  | 0.0023232  |   1.1 |  0.15
Bond    | 0.088065   | 0.13275    | 0.16291    |   4.5 | 16.85
Neigh   | 0.00096945 | 0.0013503  | 0.0018142  |   0.6 |  0.17
Comm    | 0.26735    | 0.3239     | 0.38129    |   4.2 | 41.10
Output  | 0.19537    | 0.23874    | 0.27922    |   5.1 | 30.29
Modify  | 0.016886   | 0.04266    | 0.080909   |   9.0 |  5.41
Other   |            | 0.04749    |            |       |  6.03

Nlocal:        312.469 ave         371 max         207 min
Histogram: 1 1 1 5 8 10 9 14 8 7
Nghost:        402.234 ave         665 max         206 min
Histogram: 5 6 15 10 4 5 5 9 3 2
Neighs:        62.6875 ave         363 max           0 min
Histogram: 38 6 7 2 4 1 3 1 0 2

Total # of neighbors = 4012
Ave neighs/atom = 0.20062006
Ave special neighs/atom = 35.70007
Neighbor list builds = 3
Dangerous builds = 0
System init for write_data ...
Generated 0 of 0 mixed pair_coeff terms from geometric mixing rule
Generated 0 of 0 mixed pair_coeff terms from geometric mixing rule
Setting up Verlet run ...
  Unit style    : metal
  Current step  : 6000
  Time step     : 0.001
Per MPI rank memory allocation (min/avg/max) = 22.36 | 22.37 | 22.39 Mbytes
   Step         TotEng         PotEng          Temp          E_bond        E_dihed           Lx             Ly             Lz      
      6000   141.97673      138.24297      1.4444997      8.6500954      155.87162      409.00996      400.59038      376.59206    
      7000   145.33868      141.16507      1.6146664      10.582283      164.72485      409.81834      400.78316      372.82614    
Loop time of 0.612574 on 64 procs for 1000 steps with 19998 atoms

Performance: 141.044 ns/day, 0.170 hours/ns, 1632.457 timesteps/s, 32.646 Matom-step/s
99.3% CPU use with 64 MPI tasks x 1 OpenMP threads

MPI task timing breakdown:
Section |  min time  |  avg time  |  max time  |%varavg| %total
---------------------------------------------------------------
Pair    | 0.00064758 | 0.0011517  | 0.0025078  |   1.2 |  0.19
Bond    | 0.09158    | 0.13248    | 0.16236    |   4.4 | 21.63
Neigh   | 0.00067978 | 0.00084524 | 0.0011197  |   0.0 |  0.14
Comm    | 0.17662    | 0.22202    | 0.26773    |   4.2 | 36.24
Output  | 0.15346    | 0.18655    | 0.21865    |   4.5 | 30.45
Modify  | 0.016477   | 0.031263   | 0.05834    |   6.0 |  5.10
Other   |            | 0.03827    |            |       |  6.25

Nlocal:        312.469 ave         371 max         212 min
Histogram: 1 2 1 5 8 10 13 9 8 7
Nghost:        404.031 ave         672 max         204 min
Histogram: 5 5 16 10 3 7 3 10 3 2
Neighs:        66.8438 ave         401 max           0 min
Histogram: 38 7 6 2 5 2 1 1 1 1

Total # of neighbors = 4278
Ave neighs/atom = 0.21392139
Ave special neighs/atom = 35.70007
Neighbor list builds = 2
Dangerous builds = 0
System init for write_data ...
Generated 0 of 0 mixed pair_coeff terms from geometric mixing rule
Generated 0 of 0 mixed pair_coeff terms from geometric mixing rule
Setting up Verlet run ...
  Unit style    : metal
  Current step  : 7000
  Time step     : 0.001
Per MPI rank memory allocation (min/avg/max) = 22.36 | 22.37 | 22.39 Mbytes
   Step         TotEng         PotEng          Temp          E_bond        E_dihed           Lx             Ly             Lz      
      7000   145.36476      141.19115      1.6146664      10.607932      164.72532      410.19503      400.98652      372.82614    
      8000   149.96557      146.13585      1.4816232      11.335776      173.86783      410.91404      401.28023      369.09788    
Loop time of 0.608908 on 64 procs for 1000 steps with 19998 atoms

Performance: 141.893 ns/day, 0.169 hours/ns, 1642.284 timesteps/s, 32.842 Matom-step/s
99.2% CPU use with 64 MPI tasks x 1 OpenMP threads

MPI task timing breakdown:
Section |  min time  |  avg time  |  max time  |%varavg| %total
---------------------------------------------------------------
Pair    | 0.00065467 | 0.0011815  | 0.0027424  |   1.3 |  0.19
Bond    | 0.095698   | 0.13273    | 0.16365    |   4.3 | 21.80
Neigh   | 0.00062183 | 0.00082727 | 0.0012251  |   0.0 |  0.14
Comm    | 0.20732    | 0.24505    | 0.28364    |   3.4 | 40.24
Output  | 0.14872    | 0.17423    | 0.19918    |   3.6 | 28.61
Modify  | 0.012595   | 0.023686   | 0.039672   |   4.1 |  3.89
Other   |            | 0.03119    |            |       |  5.12

Nlocal:        312.469 ave         367 max         223 min
Histogram: 2 1 1 8 6 12 10 7 10 7
Nghost:        406.984 ave         669 max         204 min
Histogram: 5 5 15 9 5 7 3 8 5 2
Neighs:        72.8594 ave         431 max           0 min
Histogram: 38 9 4 2 5 0 2 2 1 1

Total # of neighbors = 4663
Ave neighs/atom = 0.23317332
Ave special neighs/atom = 35.70007
Neighbor list builds = 2
Dangerous builds = 0
System init for write_data ...
Generated 0 of 0 mixed pair_coeff terms from geometric mixing rule
Generated 0 of 0 mixed pair_coeff terms from geometric mixing rule
Setting up Verlet run ...
  Unit style    : metal
  Current step  : 8000
  Time step     : 0.001
Per MPI rank memory allocation (min/avg/max) = 22.36 | 22.37 | 22.39 Mbytes
   Step         TotEng         PotEng          Temp          E_bond        E_dihed           Lx             Ly             Lz      
      8000   149.99146      146.16173      1.4816232      11.361197      173.86833      411.22159      401.38328      369.09788    
      9000   150.0845       146.23716      1.4884394      12.473182      184.20807      412.11465      401.5048       365.4069     
Loop time of 0.809373 on 64 procs for 1000 steps with 19998 atoms

Performance: 106.749 ns/day, 0.225 hours/ns, 1235.524 timesteps/s, 24.708 Matom-step/s
99.3% CPU use with 64 MPI tasks x 1 OpenMP threads

MPI task timing breakdown:
Section |  min time  |  avg time  |  max time  |%varavg| %total
---------------------------------------------------------------
Pair    | 0.00071624 | 0.0012428  | 0.0027962  |   1.4 |  0.15
Bond    | 0.10013    | 0.13295    | 0.16402    |   4.4 | 16.43
Neigh   | 0.0010527  | 0.0013795  | 0.00199    |   0.6 |  0.17
Comm    | 0.27408    | 0.3366     | 0.37971    |   4.1 | 41.59
Output  | 0.19593    | 0.24348    | 0.287      |   5.4 | 30.08
Modify  | 0.01807    | 0.043247   | 0.084683   |   8.5 |  5.34
Other   |            | 0.05047    |            |       |  6.24

Nlocal:        312.469 ave         374 max         234 min
Histogram: 3 1 6 5 11 9 7 9 7 6
Nghost:        411.375 ave         674 max         207 min
Histogram: 5 6 13 10 6 6 3 8 6 1
Neighs:        81.6719 ave         479 max           0 min
Histogram: 35 12 5 2 4 0 2 0 2 2

Total # of neighbors = 5227
Ave neighs/atom = 0.26137614
Ave special neighs/atom = 35.70007
Neighbor list builds = 3
Dangerous builds = 0
System init for write_data ...
Generated 0 of 0 mixed pair_coeff terms from geometric mixing rule
Generated 0 of 0 mixed pair_coeff terms from geometric mixing rule
Setting up Verlet run ...
  Unit style    : metal
  Current step  : 9000
  Time step     : 0.001
Per MPI rank memory allocation (min/avg/max) = 22.36 | 22.37 | 22.39 Mbytes
   Step         TotEng         PotEng          Temp          E_bond        E_dihed           Lx             Ly             Lz      
      9000   150.11044      146.2631       1.4884394      12.498641      184.20859      412.13408      401.50387      365.4069     
     10000   154.27726      150.87248      1.3172209      12.58044       194.21716      412.81342      401.575        361.75283    
Loop time of 0.602201 on 64 procs for 1000 steps with 19998 atoms

Performance: 143.474 ns/day, 0.167 hours/ns, 1660.574 timesteps/s, 33.208 Matom-step/s
99.3% CPU use with 64 MPI tasks x 1 OpenMP threads

MPI task timing breakdown:
Section |  min time  |  avg time  |  max time  |%varavg| %total
---------------------------------------------------------------
Pair    | 0.00068626 | 0.0012336  | 0.0029942  |   1.6 |  0.20
Bond    | 0.10435    | 0.13284    | 0.16393    |   4.3 | 22.06
Neigh   | 0.00076195 | 0.00097881 | 0.0012951  |   0.0 |  0.16
Comm    | 0.18701    | 0.226      | 0.26496    |   4.3 | 37.53
Output  | 0.15007    | 0.17644    | 0.20165    |   3.6 | 29.30
Modify  | 0.014218   | 0.033129   | 0.056285   |   6.6 |  5.50
Other   |            | 0.03158    |            |       |  5.24

Nlocal:        312.469 ave         384 max         241 min
Histogram: 3 2 8 11 10 7 10 6 6 1
Nghost:        414.141 ave         674 max         205 min
Histogram: 5 6 11 12 6 6 3 7 7 1
Neighs:        87.0781 ave         512 max           0 min
Histogram: 36 11 5 4 2 0 2 0 1 3

Total # of neighbors = 5573
Ave neighs/atom = 0.27867787
Ave special neighs/atom = 35.70007
Neighbor list builds = 2
Dangerous builds = 0
System init for write_data ...
Generated 0 of 0 mixed pair_coeff terms from geometric mixing rule
Generated 0 of 0 mixed pair_coeff terms from geometric mixing rule
Setting up Verlet run ...
  Unit style    : metal
  Current step  : 10000
  Time step     : 0.001
Per MPI rank memory allocation (min/avg/max) = 22.36 | 22.37 | 22.39 Mbytes
   Step         TotEng         PotEng          Temp          E_bond        E_dihed           Lx             Ly             Lz      
     10000   154.30044      150.89567      1.3172209      12.603118      194.21771      412.97988      401.59512      361.75283    
     11000   144.5778       141.81158      1.0701842      10.505407      191.25719      413.14016      401.61705      361.75283    
Loop time of 0.607634 on 64 procs for 1000 steps with 19998 atoms

Performance: 142.191 ns/day, 0.169 hours/ns, 1645.727 timesteps/s, 32.911 Matom-step/s
99.3% CPU use with 64 MPI tasks x 1 OpenMP threads

MPI task timing breakdown:
Section |  min time  |  avg time  |  max time  |%varavg| %total
---------------------------------------------------------------
Pair    | 0.0006929  | 0.0012523  | 0.0032211  |   1.6 |  0.21
Bond    | 0.10486    | 0.13259    | 0.1642     |   4.3 | 21.82
Neigh   | 0.00035941 | 0.00053338 | 0.00078827 |   0.0 |  0.09
Comm    | 0.17741    | 0.21554    | 0.25374    |   4.1 | 35.47
Output  | 0.15155    | 0.18654    | 0.22246    |   4.8 | 30.70
Modify  | 0.012433   | 0.029326   | 0.055063   |   6.3 |  4.83
Other   |            | 0.04184    |            |       |  6.89

Nlocal:        312.469 ave         385 max         241 min
Histogram: 3 2 8 11 10 7 10 7 5 1
Nghost:        414.531 ave         672 max         205 min
Histogram: 5 6 10 13 5 7 3 7 7 1
Neighs:        88.6562 ave         516 max           0 min
Histogram: 35 11 6 3 3 1 1 0 1 3

Total # of neighbors = 5674
Ave neighs/atom = 0.28372837
Ave special neighs/atom = 35.70007
Neighbor list builds = 1
Dangerous builds = 0
System init for write_data ...
Generated 0 of 0 mixed pair_coeff terms from geometric mixing rule
Generated 0 of 0 mixed pair_coeff terms from geometric mixing rule
Setting up Verlet run ...
  Unit style    : metal
  Current step  : 11000
  Time step     : 0.001
Per MPI rank memory allocation (min/avg/max) = 22.36 | 22.37 | 22.39 Mbytes
   Step         TotEng         PotEng          Temp          E_bond        E_dihed           Lx             Ly             Lz      
     11000   144.5778       141.81158      1.0701842      10.505407      191.25719      413.51868      401.70378      361.75283    
     12000   137.02104      134.30453      1.0509483      9.955513       188.01464      413.99373      401.82631      361.75283    
Loop time of 0.764327 on 64 procs for 1000 steps with 19998 atoms

Performance: 113.041 ns/day, 0.212 hours/ns, 1308.340 timesteps/s, 26.164 Matom-step/s
99.3% CPU use with 64 MPI tasks x 1 OpenMP threads

MPI task timing breakdown:
Section |  min time  |  avg time  |  max time  |%varavg| %total
---------------------------------------------------------------
Pair    | 0.0007023  | 0.0012817  | 0.0034552  |   1.7 |  0.17
Bond    | 0.10499    | 0.13285    | 0.16653    |   4.3 | 17.38
Neigh   | 0.0003111  | 0.00046229 | 0.00066762 |   0.0 |  0.06
Comm    | 0.28019    | 0.33047    | 0.37339    |   3.9 | 43.24
Output  | 0.17833    | 0.21811    | 0.25565    |   5.0 | 28.54
Modify  | 0.011309   | 0.037038   | 0.06944    |   8.3 |  4.85
Other   |            | 0.04412    |            |       |  5.77

Nlocal:        312.469 ave         392 max         241 min
Histogram: 3 5 6 11 11 10 6 7 4 1
Nghost:        415.531 ave         660 max         206 min
Histogram: 5 7 10 12 4 8 1 6 7 4
Neighs:         92.875 ave         612 max           0 min
Histogram: 38 10 6 2 2 2 0 2 1 1

Total # of neighbors = 5944
Ave neighs/atom = 0.29722972
Ave special neighs/atom = 35.70007
Neighbor list builds = 1
Dangerous builds = 0
System init for write_data ...
Generated 0 of 0 mixed pair_coeff terms from geometric mixing rule
Generated 0 of 0 mixed pair_coeff terms from geometric mixing rule
Setting up Verlet run ...
  Unit style    : metal
  Current step  : 12000
  Time step     : 0.001
Per MPI rank memory allocation (min/avg/max) = 22.36 | 22.37 | 22.39 Mbytes
   Step         TotEng         PotEng          Temp          E_bond        E_dihed           Lx             Ly             Lz      
     12000   137.02104      134.30453      1.0509483      9.955513       188.01464      414.09761      401.84272      361.75283    
     13000   129.32755      126.76241      0.99238762     9.8895813      185.6707       414.29086      401.9181       361.75283    
Loop time of 0.833542 on 64 procs for 1000 steps with 19998 atoms

Performance: 103.654 ns/day, 0.232 hours/ns, 1199.699 timesteps/s, 23.992 Matom-step/s
99.3% CPU use with 64 MPI tasks x 1 OpenMP threads

MPI task timing breakdown:
Section |  min time  |  avg time  |  max time  |%varavg| %total
---------------------------------------------------------------
Pair    | 0.00069815 | 0.0013029  | 0.0038293  |   1.7 |  0.16
Bond    | 0.10512    | 0.13294    | 0.16884    |   4.4 | 15.95
Neigh   | 0.00041356 | 0.00058704 | 0.00083471 |   0.0 |  0.07
Comm    | 0.27648    | 0.34872    | 0.40325    |   5.0 | 41.84
Output  | 0.20954    | 0.25425    | 0.29512    |   5.1 | 30.50
Modify  | 0.013031   | 0.048323   | 0.10296    |  10.8 |  5.80
Other   |            | 0.04743    |            |       |  5.69

Nlocal:        312.469 ave         394 max         236 min
Histogram: 3 2 6 13 11 10 8 5 5 1
Nghost:        415.297 ave         659 max         205 min
Histogram: 5 6 11 12 5 7 1 6 7 4
Neighs:        94.5156 ave         627 max           0 min
Histogram: 37 12 6 1 3 1 0 2 1 1

Total # of neighbors = 6049
Ave neighs/atom = 0.30248025
Ave special neighs/atom = 35.70007
Neighbor list builds = 1
Dangerous builds = 0
System init for write_data ...
Generated 0 of 0 mixed pair_coeff terms from geometric mixing rule
Generated 0 of 0 mixed pair_coeff terms from geometric mixing rule
Setting up Verlet run ...
  Unit style    : metal
  Current step  : 13000
  Time step     : 0.001
Per MPI rank memory allocation (min/avg/max) = 22.36 | 22.37 | 22.39 Mbytes
   Step         TotEng         PotEng          Temp          E_bond        E_dihed           Lx             Ly             Lz      
     13000   129.32755      126.76241      0.99238762     9.8895813      185.6707       414.8431       402.00292      361.75283    
     14000   124.93111      122.40443      0.97750875     9.3046582      183.12449      415.74431      402.10165      361.75283    
Loop time of 0.746646 on 64 procs for 1000 steps with 19998 atoms

Performance: 115.717 ns/day, 0.207 hours/ns, 1339.322 timesteps/s, 26.784 Matom-step/s
99.3% CPU use with 64 MPI tasks x 1 OpenMP threads

MPI task timing breakdown:
Section |  min time  |  avg time  |  max time  |%varavg| %total
---------------------------------------------------------------
Pair    | 0.00070666 | 0.0012992  | 0.0039597  |   1.8 |  0.17
Bond    | 0.10467    | 0.13288    | 0.16857    |   4.5 | 17.80
Neigh   | 0.00073289 | 0.00097867 | 0.0012667  |   0.0 |  0.13
Comm    | 0.24365    | 0.30914    | 0.36119    |   5.1 | 41.40
Output  | 0.17447    | 0.21419    | 0.25153    |   5.0 | 28.69
Modify  | 0.013918   | 0.044516   | 0.087825   |  10.6 |  5.96
Other   |            | 0.04364    |            |       |  5.85

Nlocal:        312.469 ave         393 max         235 min
Histogram: 2 3 8 9 12 10 8 5 5 2
Nghost:         415.25 ave         652 max         205 min
Histogram: 4 8 10 12 4 8 0 5 9 4
Neighs:        97.3125 ave         678 max           0 min
Histogram: 39 12 3 3 3 0 2 0 0 2

Total # of neighbors = 6228
Ave neighs/atom = 0.31143114
Ave special neighs/atom = 35.70007
Neighbor list builds = 2
Dangerous builds = 0
System init for write_data ...
Generated 0 of 0 mixed pair_coeff terms from geometric mixing rule
Generated 0 of 0 mixed pair_coeff terms from geometric mixing rule
Setting up Verlet run ...
  Unit style    : metal
  Current step  : 14000
  Time step     : 0.001
Per MPI rank memory allocation (min/avg/max) = 22.36 | 22.38 | 22.39 Mbytes
   Step         TotEng         PotEng          Temp          E_bond        E_dihed           Lx             Ly             Lz      
     14000   124.93111      122.40443      0.97750875     9.3046582      183.12449      415.76008      402.10122      361.75283    
     15000   120.48186      117.91456      0.99322314     8.8646073      180.86253      415.76008      402.10122      361.75283    
Loop time of 0.560674 on 64 procs for 1000 steps with 19998 atoms

Performance: 154.100 ns/day, 0.156 hours/ns, 1783.566 timesteps/s, 35.668 Matom-step/s
99.3% CPU use with 64 MPI tasks x 1 OpenMP threads

MPI task timing breakdown:
Section |  min time  |  avg time  |  max time  |%varavg| %total
---------------------------------------------------------------
Pair    | 0.00067476 | 0.0012674  | 0.0038374  |   1.8 |  0.23
Bond    | 0.10314    | 0.13254    | 0.16915    |   4.5 | 23.64
Neigh   | 0          | 0          | 0          |   0.0 |  0.00
Comm    | 0.16632    | 0.21311    | 0.24863    |   4.1 | 38.01
Output  | 0.13672    | 0.16067    | 0.18393    |   3.5 | 28.66
Modify  | 0.011327   | 0.02406    | 0.056645   |   6.7 |  4.29
Other   |            | 0.02903    |            |       |  5.18

Nlocal:        312.469 ave         393 max         235 min
Histogram: 2 3 8 9 12 10 8 5 5 2
Nghost:        415.219 ave         652 max         205 min
Histogram: 4 8 10 12 4 8 0 5 9 4
Neighs:        97.2812 ave         677 max           0 min
Histogram: 39 12 3 3 3 0 2 0 0 2

Total # of neighbors = 6226
Ave neighs/atom = 0.31133113
Ave special neighs/atom = 35.70007
Neighbor list builds = 0
Dangerous builds = 0
System init for write_data ...
Generated 0 of 0 mixed pair_coeff terms from geometric mixing rule
Generated 0 of 0 mixed pair_coeff terms from geometric mixing rule
Setting up Verlet run ...
  Unit style    : metal
  Current step  : 15000
  Time step     : 0.001
Per MPI rank memory allocation (min/avg/max) = 22.36 | 22.38 | 22.39 Mbytes
   Step         TotEng         PotEng          Temp          E_bond        E_dihed           Lx             Ly             Lz      
     15000   120.48186      117.91456      0.99322314     8.8646073      180.86253      416.29922      402.16308      361.75283    
     16000   115.57972      112.78374      1.0816938      9.191205       178.94038      416.98243      402.12288      361.75283    
Loop time of 0.67198 on 64 procs for 1000 steps with 19998 atoms

Performance: 128.575 ns/day, 0.187 hours/ns, 1488.140 timesteps/s, 29.760 Matom-step/s
99.3% CPU use with 64 MPI tasks x 1 OpenMP threads

MPI task timing breakdown:
Section |  min time  |  avg time  |  max time  |%varavg| %total
---------------------------------------------------------------
Pair    | 0.00064603 | 0.001302   | 0.0039756  |   1.9 |  0.19
Bond    | 0.10392    | 0.13278    | 0.16964    |   4.7 | 19.76
Neigh   | 0.00075616 | 0.00088803 | 0.0011355  |   0.0 |  0.13
Comm    | 0.21659    | 0.26696    | 0.30641    |   4.0 | 39.73
Output  | 0.16552    | 0.19919    | 0.23073    |   4.4 | 29.64
Modify  | 0.014195   | 0.033181   | 0.071522   |   7.7 |  4.94
Other   |            | 0.03767    |            |       |  5.61

Nlocal:        312.469 ave         396 max         220 min
Histogram: 1 3 5 11 9 10 11 8 4 2
Nghost:        415.062 ave         655 max         205 min
Histogram: 5 7 10 12 5 6 2 6 6 5
Neighs:            101 ave         701 max           0 min
Histogram: 38 11 4 3 3 1 2 0 0 2

Total # of neighbors = 6464
Ave neighs/atom = 0.32323232
Ave special neighs/atom = 35.70007
Neighbor list builds = 2
Dangerous builds = 0
System init for write_data ...
Generated 0 of 0 mixed pair_coeff terms from geometric mixing rule
Generated 0 of 0 mixed pair_coeff terms from geometric mixing rule
Setting up Verlet run ...
  Unit style    : metal
  Current step  : 16000
  Time step     : 0.001
Per MPI rank memory allocation (min/avg/max) = 22.36 | 22.38 | 22.39 Mbytes
   Step         TotEng         PotEng          Temp          E_bond        E_dihed           Lx             Ly             Lz      
     16000   115.57972      112.78374      1.0816938      9.191205       178.94038      416.99787      402.11012      361.75283    
     17000   108.19346      105.67578      0.97402651     8.9411062      177.53302      417.29809      402.04621      361.75283    
Loop time of 0.756795 on 64 procs for 1000 steps with 19998 atoms

Performance: 114.166 ns/day, 0.210 hours/ns, 1321.361 timesteps/s, 26.425 Matom-step/s
99.3% CPU use with 64 MPI tasks x 1 OpenMP threads

MPI task timing breakdown:
Section |  min time  |  avg time  |  max time  |%varavg| %total
---------------------------------------------------------------
Pair    | 0.00063919 | 0.0013141  | 0.0040367  |   1.9 |  0.17
Bond    | 0.10327    | 0.13283    | 0.16916    |   4.7 | 17.55
Neigh   | 0.00033394 | 0.00047909 | 0.00069865 |   0.0 |  0.06
Comm    | 0.28375    | 0.33885    | 0.38484    |   4.1 | 44.77
Output  | 0.17275    | 0.20616    | 0.2374     |   4.3 | 27.24
Modify  | 0.010391   | 0.039524   | 0.10015    |   9.4 |  5.22
Other   |            | 0.03765    |            |       |  4.97

Nlocal:        312.469 ave         398 max         221 min
Histogram: 1 3 6 10 12 8 10 8 4 2
Nghost:         414.75 ave         655 max         205 min
Histogram: 5 7 10 11 5 7 3 5 6 5
Neighs:        102.656 ave         702 max           0 min
Histogram: 38 10 6 3 2 1 1 1 0 2

Total # of neighbors = 6570
Ave neighs/atom = 0.32853285
Ave special neighs/atom = 35.70007
Neighbor list builds = 1
Dangerous builds = 0
System init for write_data ...
Generated 0 of 0 mixed pair_coeff terms from geometric mixing rule
Generated 0 of 0 mixed pair_coeff terms from geometric mixing rule
Setting up Verlet run ...
  Unit style    : metal
  Current step  : 17000
  Time step     : 0.001
Per MPI rank memory allocation (min/avg/max) = 22.36 | 22.38 | 22.39 Mbytes
   Step         TotEng         PotEng          Temp          E_bond        E_dihed           Lx             Ly             Lz      
     17000   108.19346      105.67578      0.97402651     8.9411062      177.53302      417.48928      401.99587      361.75283    
     18000   104.94217      102.41167      0.97898454     8.2488868      175.95363      417.91887      401.91983      361.75283    
Loop time of 0.658805 on 64 procs for 1000 steps with 19998 atoms

Performance: 131.147 ns/day, 0.183 hours/ns, 1517.900 timesteps/s, 30.355 Matom-step/s
99.3% CPU use with 64 MPI tasks x 1 OpenMP threads

MPI task timing breakdown:
Section |  min time  |  avg time  |  max time  |%varavg| %total
---------------------------------------------------------------
Pair    | 0.00063268 | 0.0013223  | 0.0041049  |   1.9 |  0.20
Bond    | 0.10284    | 0.13274    | 0.16996    |   4.8 | 20.15
Neigh   | 0.00040592 | 0.00044123 | 0.00048566 |   0.0 |  0.07
Comm    | 0.19897    | 0.24652    | 0.28285    |   4.0 | 37.42
Output  | 0.16431    | 0.20252    | 0.23853    |   5.0 | 30.74
Modify  | 0.013057   | 0.0329     | 0.068695   |   6.8 |  4.99
Other   |            | 0.04236    |            |       |  6.43

Nlocal:        312.469 ave         399 max         221 min
Histogram: 1 3 5 12 11 8 11 7 4 2
Nghost:        415.062 ave         656 max         204 min
Histogram: 5 5 11 12 6 6 3 5 6 5
Neighs:         105.25 ave         717 max           0 min
Histogram: 38 10 7 2 2 1 1 1 0 2

Total # of neighbors = 6736
Ave neighs/atom = 0.33683368
Ave special neighs/atom = 35.70007
Neighbor list builds = 1
Dangerous builds = 0
System init for write_data ...
Generated 0 of 0 mixed pair_coeff terms from geometric mixing rule
Generated 0 of 0 mixed pair_coeff terms from geometric mixing rule
Setting up Verlet run ...
  Unit style    : metal
  Current step  : 18000
  Time step     : 0.001
Per MPI rank memory allocation (min/avg/max) = 22.36 | 22.38 | 22.39 Mbytes
   Step         TotEng         PotEng          Temp          E_bond        E_dihed           Lx             Ly             Lz      
     18000   104.94217      102.41167      0.97898454     8.2488868      175.95363      418.03601      401.88747      361.75283    
     19000   101.70595      99.045112      1.0294099      8.3115052      174.47737      418.62816      402.06693      361.75283    
Loop time of 0.501551 on 64 procs for 1000 steps with 19998 atoms

Performance: 172.266 ns/day, 0.139 hours/ns, 1993.817 timesteps/s, 39.872 Matom-step/s
99.2% CPU use with 64 MPI tasks x 1 OpenMP threads

MPI task timing breakdown:
Section |  min time  |  avg time  |  max time  |%varavg| %total
---------------------------------------------------------------
Pair    | 0.0006159  | 0.0013045  | 0.0041083  |   2.0 |  0.26
Bond    | 0.10161    | 0.13259    | 0.16965    |   4.8 | 26.44
Neigh   | 0.00039354 | 0.00042445 | 0.00048139 |   0.0 |  0.08
Comm    | 0.13945    | 0.17789    | 0.2134     |   4.3 | 35.47
Output  | 0.12467    | 0.14429    | 0.16377    |   3.1 | 28.77
Modify  | 0.0089891  | 0.019915   | 0.04547    |   4.7 |  3.97
Other   |            | 0.02514    |            |       |  5.01

Nlocal:        312.469 ave         403 max         220 min
Histogram: 1 2 7 11 12 9 9 8 3 2
Nghost:        415.812 ave         659 max         204 min
Histogram: 5 6 10 11 8 4 4 5 6 5
Neighs:        106.781 ave         734 max           0 min
Histogram: 39 9 7 2 1 2 1 1 0 2

Total # of neighbors = 6834
Ave neighs/atom = 0.34173417
Ave special neighs/atom = 35.70007
Neighbor list builds = 1
Dangerous builds = 0
System init for write_data ...
Generated 0 of 0 mixed pair_coeff terms from geometric mixing rule
Generated 0 of 0 mixed pair_coeff terms from geometric mixing rule
Setting up Verlet run ...
  Unit style    : metal
  Current step  : 19000
  Time step     : 0.001
Per MPI rank memory allocation (min/avg/max) = 22.36 | 22.38 | 22.4 Mbytes
   Step         TotEng         PotEng          Temp          E_bond        E_dihed           Lx             Ly             Lz      
     19000   101.70595      99.045112      1.0294099      8.3115052      174.47737      418.89482      402.12902      361.75283    
     20000   99.459964      96.940717      0.97463332     8.0351216      172.72194      419.57472      402.11066      361.75283    
Loop time of 0.772193 on 64 procs for 1000 steps with 19998 atoms

Performance: 111.889 ns/day, 0.214 hours/ns, 1295.013 timesteps/s, 25.898 Matom-step/s
99.3% CPU use with 64 MPI tasks x 1 OpenMP threads

MPI task timing breakdown:
Section |  min time  |  avg time  |  max time  |%varavg| %total
---------------------------------------------------------------
Pair    | 0.00067346 | 0.0013502  | 0.0042328  |   2.0 |  0.17
Bond    | 0.10188    | 0.13295    | 0.17014    |   4.9 | 17.22
Neigh   | 0.00035364 | 0.00048637 | 0.0007042  |   0.0 |  0.06
Comm    | 0.29061    | 0.33935    | 0.37667    |   3.4 | 43.95
Output  | 0.17735    | 0.21501    | 0.2504     |   4.7 | 27.84
Modify  | 0.019531   | 0.041134   | 0.072951   |   6.5 |  5.33
Other   |            | 0.04191    |            |       |  5.43

[...]
Setting up Verlet run ...
  Unit style    : metal
  Current step  : 5000
  Time step     : 0.001
Per MPI rank memory allocation (min/avg/max) = 21.35 | 21.36 | 21.37 Mbytes
   Step         TotEng         PotEng          Temp          E_bond        E_dihed           Lx             Ly             Lz      
      5000   1584.7067      1578.846       2.2673754      53.111863      1545.7925      397.16947      408.16463      380.39602    
      6000   1609.3724      1603.8933      2.1197029      59.520782      1569.3927      397.42676      408.91245      376.59206    
Loop time of 0.487016 on 64 procs for 1000 steps with 19998 atoms

Performance: 177.407 ns/day, 0.135 hours/ns, 2053.319 timesteps/s, 41.062 Matom-step/s
99.2% CPU use with 64 MPI tasks x 1 OpenMP threads

MPI task timing breakdown:
Section |  min time  |  avg time  |  max time  |%varavg| %total
---------------------------------------------------------------
Pair    | 0.00073561 | 0.0012798  | 0.0030304  |   1.2 |  0.26
Bond    | 0.10848    | 0.14821    | 0.1736     |   3.7 | 30.43
Neigh   | 0.00061984 | 0.00066281 | 0.00076904 |   0.0 |  0.14
Comm    | 0.10076    | 0.12336    | 0.16214    |   4.0 | 25.33
Output  | 0.14019    | 0.16186    | 0.18371    |   3.2 | 33.24
Modify  | 0.014733   | 0.022833   | 0.036384   |   3.4 |  4.69
Other   |            | 0.02882    |            |       |  5.92

Nlocal:        312.469 ave         361 max         227 min
Histogram: 1 0 2 5 8 7 16 13 5 7
Nghost:        393.391 ave         609 max         209 min
Histogram: 2 4 10 12 8 11 7 6 3 1
Neighs:        56.7031 ave         386 max           0 min
Histogram: 40 8 3 2 7 3 0 0 0 1

Total # of neighbors = 3629
Ave neighs/atom = 0.18146815
Ave special neighs/atom = 36.428743
Neighbor list builds = 2
Dangerous builds = 0
System init for write_data ...
Generated 0 of 0 mixed pair_coeff terms from geometric mixing rule
Generated 0 of 0 mixed pair_coeff terms from geometric mixing rule
Setting up Verlet run ...
  Unit style    : metal
  Current step  : 6000
  Time step     : 0.001
Per MPI rank memory allocation (min/avg/max) = 21.35 | 21.36 | 21.37 Mbytes
   Step         TotEng         PotEng          Temp          E_bond        E_dihed           Lx             Ly             Lz      
      6000   1609.4481      1603.969       2.1197029      59.59698       1569.3922      397.54203      409.25508      376.59206    
      7000   1639.5601      1634.3391      2.0198843      65.998065      1596.4863      397.74256      409.99172      372.82614    
Loop time of 1.25578 on 64 procs for 1000 steps with 19998 atoms

Performance: 68.802 ns/day, 0.349 hours/ns, 796.319 timesteps/s, 15.925 Matom-step/s
98.5% CPU use with 64 MPI tasks x 1 OpenMP threads

MPI task timing breakdown:
Section |  min time  |  avg time  |  max time  |%varavg| %total
---------------------------------------------------------------
Pair    | 0.0007361  | 0.0013496  | 0.0033283  |   1.3 |  0.11
Bond    | 0.10876    | 0.14823    | 0.17203    |   3.6 | 11.80
Neigh   | 0.00064666 | 0.00069517 | 0.00076356 |   0.0 |  0.06
Comm    | 0.17032    | 0.19467    | 0.23491    |   3.2 | 15.50
Output  | 0.83055    | 0.85461    | 0.87948    |   1.6 | 68.05
Modify  | 0.015595   | 0.02388    | 0.039234   |   3.8 |  1.90
Other   |            | 0.03235    |            |       |  2.58

Nlocal:        312.469 ave         363 max         228 min
Histogram: 1 0 2 5 10 7 16 11 7 5
Nghost:        396.953 ave         616 max         210 min
Histogram: 2 4 9 12 10 12 7 4 3 1
Neighs:             65 ave         418 max           0 min
Histogram: 40 7 4 2 4 5 1 0 0 1

Total # of neighbors = 4160
Ave neighs/atom = 0.2080208
Ave special neighs/atom = 36.428743
Neighbor list builds = 2
Dangerous builds = 0
System init for write_data ...
Generated 0 of 0 mixed pair_coeff terms from geometric mixing rule
Generated 0 of 0 mixed pair_coeff terms from geometric mixing rule
Setting up Verlet run ...
  Unit style    : metal
  Current step  : 7000
  Time step     : 0.001
Per MPI rank memory allocation (min/avg/max) = 21.35 | 21.36 | 21.38 Mbytes
   Step         TotEng         PotEng          Temp          E_bond        E_dihed           Lx             Ly             Lz      
      7000   1639.6373      1634.4162      2.0198843      66.07565       1596.4859      397.82182      410.2668       372.82614    
      8000   1672.9222      1667.3972      2.1374579      72.85446       1626.785       398.03561      411.11728      369.09788    
Loop time of 0.684059 on 64 procs for 1000 steps with 19998 atoms

Performance: 126.305 ns/day, 0.190 hours/ns, 1461.861 timesteps/s, 29.234 Matom-step/s
99.2% CPU use with 64 MPI tasks x 1 OpenMP threads

MPI task timing breakdown:
Section |  min time  |  avg time  |  max time  |%varavg| %total
---------------------------------------------------------------
Pair    | 0.00072839 | 0.001381   | 0.0035674  |   1.4 |  0.20
Bond    | 0.1067     | 0.14481    | 0.16848    |   3.6 | 21.17
Neigh   | 0.00064486 | 0.00084212 | 0.0012588  |   0.0 |  0.12
Comm    | 0.26392    | 0.28634    | 0.32344    |   2.5 | 41.86
Output  | 0.1617     | 0.18956    | 0.21752    |   3.8 | 27.71
Modify  | 0.01936    | 0.025772   | 0.044158   |   3.4 |  3.77
Other   |            | 0.03536    |            |       |  5.17

Nlocal:        312.469 ave         367 max         229 min
Histogram: 1 0 4 4 9 9 15 10 11 1
Nghost:        399.859 ave         631 max         209 min
Histogram: 2 4 9 12 13 9 8 3 3 1
Neighs:        72.9688 ave         460 max           0 min
Histogram: 39 7 5 2 3 6 1 0 0 1

Total # of neighbors = 4670
Ave neighs/atom = 0.23352335
Ave special neighs/atom = 36.428743
Neighbor list builds = 2
Dangerous builds = 0
System init for write_data ...
Generated 0 of 0 mixed pair_coeff terms from geometric mixing rule
Generated 0 of 0 mixed pair_coeff terms from geometric mixing rule
Setting up Verlet run ...
  Unit style    : metal
  Current step  : 8000
  Time step     : 0.001
Per MPI rank memory allocation (min/avg/max) = 21.35 | 21.36 | 21.38 Mbytes
   Step         TotEng         PotEng          Temp          E_bond        E_dihed           Lx             Ly             Lz      
      8000   1672.9985      1667.4736      2.1374579      72.931257      1626.7847      398.08769      411.37601      369.09788    
      9000   1703.4499      1697.6807      2.2319732      79.545496      1660.3482      398.2889       412.40417      365.4069     
Loop time of 0.636949 on 64 procs for 1000 steps with 19998 atoms

Performance: 135.647 ns/day, 0.177 hours/ns, 1569.984 timesteps/s, 31.397 Matom-step/s
99.1% CPU use with 64 MPI tasks x 1 OpenMP threads

MPI task timing breakdown:
Section |  min time  |  avg time  |  max time  |%varavg| %total
---------------------------------------------------------------
Pair    | 0.00073804 | 0.001405   | 0.0037933  |   1.6 |  0.22
Bond    | 0.10988    | 0.14869    | 0.17331    |   3.7 | 23.34
Neigh   | 0.00065613 | 0.0007551  | 0.00089908 |   0.0 |  0.12
Comm    | 0.19029    | 0.22214    | 0.26682    |   3.3 | 34.87
Output  | 0.16588    | 0.19765    | 0.22861    |   4.2 | 31.03
Modify  | 0.016055   | 0.028308   | 0.050621   |   5.0 |  4.44
Other   |            | 0.03801    |            |       |  5.97

Nlocal:        312.469 ave         367 max         230 min
Histogram: 1 1 3 4 9 12 14 9 9 2
Nghost:        403.188 ave         646 max         215 min
Histogram: 3 5 8 11 15 8 8 2 3 1
Neighs:        81.9219 ave         485 max           0 min
Histogram: 38 8 5 1 3 4 4 0 0 1

Total # of neighbors = 5243
Ave neighs/atom = 0.26217622
Ave special neighs/atom = 36.428743
Neighbor list builds = 2
Dangerous builds = 0
System init for write_data ...
Generated 0 of 0 mixed pair_coeff terms from geometric mixing rule
Generated 0 of 0 mixed pair_coeff terms from geometric mixing rule
Setting up Verlet run ...
  Unit style    : metal
  Current step  : 9000
  Time step     : 0.001
Per MPI rank memory allocation (min/avg/max) = 21.35 | 21.36 | 21.38 Mbytes
   Step         TotEng         PotEng          Temp          E_bond        E_dihed           Lx             Ly             Lz      
      9000   1703.5293      1697.76        2.2319732      79.625246      1660.3479      398.36419      412.98787      365.4069     
     10000   1739.1625      1734.1009      1.9582119      86.826057      1696.8338      398.44387      414.54694      361.75283    
Loop time of 0.677821 on 64 procs for 1000 steps with 19998 atoms

Performance: 127.467 ns/day, 0.188 hours/ns, 1475.316 timesteps/s, 29.503 Matom-step/s
98.5% CPU use with 64 MPI tasks x 1 OpenMP threads

MPI task timing breakdown:
Section |  min time  |  avg time  |  max time  |%varavg| %total
---------------------------------------------------------------
Pair    | 0.00073094 | 0.00136    | 0.0036877  |   1.7 |  0.20
Bond    | 0.10319    | 0.13782    | 0.18995    |   3.9 | 20.33
Neigh   | 0.00061764 | 0.00084924 | 0.0011298  |   0.0 |  0.13
Comm    | 0.19801    | 0.25621    | 0.30676    |   4.9 | 37.80
Output  | 0.15831    | 0.1894     | 0.22103    |   4.3 | 27.94
Modify  | 0.016986   | 0.051308   | 0.099226   |  10.3 |  7.57
Other   |            | 0.04087    |            |       |  6.03

Nlocal:        312.469 ave         364 max         233 min
Histogram: 1 2 2 5 8 12 11 9 9 5
Nghost:        407.141 ave         658 max         222 min
Histogram: 3 7 8 10 15 9 7 1 3 1
Neighs:        93.1562 ave         539 max           0 min
Histogram: 37 9 4 2 3 4 4 0 0 1

Total # of neighbors = 5962
Ave neighs/atom = 0.29812981
Ave special neighs/atom = 36.428743
Neighbor list builds = 2
Dangerous builds = 0
System init for write_data ...
Generated 0 of 0 mixed pair_coeff terms from geometric mixing rule
Generated 0 of 0 mixed pair_coeff terms from geometric mixing rule
Setting up Verlet run ...
  Unit style    : metal
  Current step  : 10000
  Time step     : 0.001
Per MPI rank memory allocation (min/avg/max) = 21.35 | 21.37 | 21.38 Mbytes
   Step         TotEng         PotEng          Temp          E_bond        E_dihed           Lx             Ly             Lz      
     10000   1739.2433      1734.1817      1.9582119      86.907191      1696.8335      398.45853      414.92899      361.75283    
     11000   1712.6896      1709.4723      1.2446777      79.636164      1683.0469      398.36706      416.03537      361.75283    
Loop time of 0.630471 on 64 procs for 1000 steps with 19998 atoms

Performance: 137.040 ns/day, 0.175 hours/ns, 1586.117 timesteps/s, 31.719 Matom-step/s
99.2% CPU use with 64 MPI tasks x 1 OpenMP threads

MPI task timing breakdown:
Section |  min time  |  avg time  |  max time  |%varavg| %total
---------------------------------------------------------------
Pair    | 0.00063903 | 0.0012715  | 0.0035276  |   1.7 |  0.20
Bond    | 0.098201   | 0.13108    | 0.15203    |   3.5 | 20.79
Neigh   | 0.0002923  | 0.00044879 | 0.00066614 |   0.0 |  0.07
Comm    | 0.22293    | 0.25956    | 0.3025     |   3.2 | 41.17
Output  | 0.14431    | 0.17388    | 0.20114    |   4.1 | 27.58
Modify  | 0.014681   | 0.031014   | 0.063805   |   7.3 |  4.92
Other   |            | 0.03321    |            |       |  5.27

Nlocal:        312.469 ave         366 max         232 min
Histogram: 1 2 4 5 7 11 14 8 5 7
Nghost:         409.25 ave         666 max         218 min
Histogram: 3 6 9 10 15 8 7 2 3 1
Neighs:        98.7812 ave         569 max           0 min
Histogram: 37 10 3 2 3 4 2 2 0 1

Total # of neighbors = 6322
Ave neighs/atom = 0.31613161
Ave special neighs/atom = 36.428743
Neighbor list builds = 1
Dangerous builds = 0
System init for write_data ...
Generated 0 of 0 mixed pair_coeff terms from geometric mixing rule
Generated 0 of 0 mixed pair_coeff terms from geometric mixing rule
Setting up Verlet run ...
  Unit style    : metal
  Current step  : 11000
  Time step     : 0.001
Per MPI rank memory allocation (min/avg/max) = 21.36 | 21.37 | 21.38 Mbytes
   Step         TotEng         PotEng          Temp          E_bond        E_dihed           Lx             Ly             Lz      
     11000   1712.6896      1709.4723      1.2446777      79.636164      1683.0469      398.35595      416.83638      361.75283    
     12000   1696.4021      1693.4162      1.1551541      76.987814      1670.524       398.35595      416.83638      361.75283    
Loop time of 0.720535 on 64 procs for 1000 steps with 19998 atoms

Performance: 119.911 ns/day, 0.200 hours/ns, 1387.857 timesteps/s, 27.754 Matom-step/s
99.1% CPU use with 64 MPI tasks x 1 OpenMP threads

MPI task timing breakdown:
Section |  min time  |  avg time  |  max time  |%varavg| %total
---------------------------------------------------------------
Pair    | 0.00066301 | 0.0013022  | 0.0036079  |   1.7 |  0.18
Bond    | 0.09756    | 0.13152    | 0.15366    |   3.6 | 18.25
Neigh   | 0          | 0          | 0          |   0.0 |  0.00
Comm    | 0.24656    | 0.28299    | 0.32307    |   2.9 | 39.28
Output  | 0.18366    | 0.22498    | 0.26389    |   5.1 | 31.22
Modify  | 0.013664   | 0.034156   | 0.062075   |   6.4 |  4.74
Other   |            | 0.04558    |            |       |  6.33

Nlocal:        312.469 ave         369 max         230 min
Histogram: 1 1 4 6 7 13 12 9 6 5
Nghost:        409.734 ave         664 max         219 min
Histogram: 3 6 9 10 15 8 6 3 3 1
Neighs:        100.719 ave         576 max           0 min
Histogram: 38 9 3 2 3 3 3 2 0 1

Total # of neighbors = 6446
Ave neighs/atom = 0.32233223
Ave special neighs/atom = 36.428743
Neighbor list builds = 0
Dangerous builds = 0
System init for write_data ...
Generated 0 of 0 mixed pair_coeff terms from geometric mixing rule
Generated 0 of 0 mixed pair_coeff terms from geometric mixing rule
Setting up Verlet run ...
  Unit style    : metal
  Current step  : 12000
  Time step     : 0.001
Per MPI rank memory allocation (min/avg/max) = 21.36 | 21.37 | 21.38 Mbytes
   Step         TotEng         PotEng          Temp          E_bond        E_dihed           Lx             Ly             Lz      
     12000   1696.4021      1693.4162      1.1551541      76.987814      1670.524       398.2819       418.37676      361.75283    
     13000   1682.3671      1679.544       1.0922043      73.85099       1659.7783      398.21959      418.79344      361.75283    
Loop time of 0.833174 on 64 procs for 1000 steps with 19998 atoms

Performance: 103.700 ns/day, 0.231 hours/ns, 1200.229 timesteps/s, 24.002 Matom-step/s
98.8% CPU use with 64 MPI tasks x 1 OpenMP threads

MPI task timing breakdown:
Section |  min time  |  avg time  |  max time  |%varavg| %total
---------------------------------------------------------------
Pair    | 0.00068769 | 0.0013576  | 0.003656   |   1.8 |  0.16
Bond    | 0.096494   | 0.13239    | 0.19228    |   4.2 | 15.89
Neigh   | 0.0002569  | 0.00042865 | 0.00069421 |   0.0 |  0.05
Comm    | 0.28201    | 0.3441     | 0.43482    |   6.9 | 41.30
Output  | 0.1831     | 0.22261    | 0.26098    |   5.0 | 26.72
Modify  | 0.01773    | 0.084676   | 0.14955    |  14.1 | 10.16
Other   |            | 0.04761    |            |       |  5.71

Nlocal:        312.469 ave         371 max         225 min
Histogram: 1 1 4 6 7 12 14 7 6 6
Nghost:        412.141 ave         670 max         221 min
Histogram: 3 8 7 11 14 8 6 3 3 1
Neighs:        110.281 ave         594 max           0 min
Histogram: 36 10 3 3 1 5 2 2 1 1

Total # of neighbors = 7058
Ave neighs/atom = 0.35293529
Ave special neighs/atom = 36.428743
Neighbor list builds = 1
Dangerous builds = 0
System init for write_data ...
Generated 0 of 0 mixed pair_coeff terms from geometric mixing rule
Generated 0 of 0 mixed pair_coeff terms from geometric mixing rule
Setting up Verlet run ...
  Unit style    : metal
  Current step  : 13000
  Time step     : 0.001
Per MPI rank memory allocation (min/avg/max) = 21.36 | 21.37 | 21.39 Mbytes
   Step         TotEng         PotEng          Temp          E_bond        E_dihed           Lx             Ly             Lz      
     13000   1682.3671      1679.544       1.0922043      73.85099       1659.7783      398.17048      419.17539      361.75283    
     14000   1672.0735      1669.3355      1.0592648      72.493203      1650.9329      398.17048      419.17539      361.75283    
Loop time of 0.539387 on 64 procs for 1000 steps with 19998 atoms

Performance: 160.182 ns/day, 0.150 hours/ns, 1853.958 timesteps/s, 37.075 Matom-step/s
98.6% CPU use with 64 MPI tasks x 1 OpenMP threads

MPI task timing breakdown:
Section |  min time  |  avg time  |  max time  |%varavg| %total
---------------------------------------------------------------
Pair    | 0.00062925 | 0.0013487  | 0.0036165  |   1.9 |  0.25
Bond    | 0.096128   | 0.13293    | 0.17256    |   4.0 | 24.64
Neigh   | 0          | 0          | 0          |   0.0 |  0.00
Comm    | 0.14426    | 0.18248    | 0.23911    |   4.7 | 33.83
Output  | 0.12999    | 0.15718    | 0.18269    |   4.0 | 29.14
Modify  | 0.0096883  | 0.033093   | 0.063619   |   9.6 |  6.14
Other   |            | 0.03236    |            |       |  6.00

Nlocal:        312.469 ave         375 max         224 min
Histogram: 1 1 4 6 9 12 12 8 7 4
Nghost:        412.969 ave         672 max         222 min
Histogram: 3 8 7 12 14 8 5 3 3 1
Neighs:        112.969 ave         600 max           0 min
Histogram: 37 9 2 3 3 4 2 2 1 1

Total # of neighbors = 7230
Ave neighs/atom = 0.36153615
Ave special neighs/atom = 36.428743
Neighbor list builds = 0
Dangerous builds = 0
System init for write_data ...
Generated 0 of 0 mixed pair_coeff terms from geometric mixing rule
Generated 0 of 0 mixed pair_coeff terms from geometric mixing rule
Setting up Verlet run ...
  Unit style    : metal
  Current step  : 14000
  Time step     : 0.001
Per MPI rank memory allocation (min/avg/max) = 21.36 | 21.37 | 21.39 Mbytes
   Step         TotEng         PotEng          Temp          E_bond        E_dihed           Lx             Ly             Lz      
     14000   1672.0735      1669.3355      1.0592648      72.493203      1650.9329      398.11898      419.8029       361.75283    
     15000   1662.3469      1659.7143      1.0185015      70.99176       1643.9991      398.11898      419.8029       361.75283    
Loop time of 0.806199 on 64 procs for 1000 steps with 19998 atoms

Performance: 107.170 ns/day, 0.224 hours/ns, 1240.388 timesteps/s, 24.805 Matom-step/s
98.6% CPU use with 64 MPI tasks x 1 OpenMP threads

MPI task timing breakdown:
Section |  min time  |  avg time  |  max time  |%varavg| %total
---------------------------------------------------------------
Pair    | 0.00069307 | 0.001528   | 0.00413    |   2.1 |  0.19
Bond    | 0.1023     | 0.14376    | 0.16988    |   4.0 | 17.83
Neigh   | 0          | 0          | 0          |   0.0 |  0.00
Comm    | 0.19388    | 0.22513    | 0.27335    |   3.4 | 27.92
Output  | 0.34214    | 0.37087    | 0.39971    |   2.8 | 46.00
Modify  | 0.013585   | 0.029286   | 0.062357   |   6.3 |  3.63
Other   |            | 0.03563    |            |       |  4.42

Nlocal:        312.469 ave         379 max         219 min
Histogram: 1 1 4 4 12 11 14 7 7 3
Nghost:        414.188 ave         667 max         221 min
Histogram: 3 8 6 13 13 7 7 3 1 3
Neighs:        118.203 ave         613 max           0 min
Histogram: 37 8 3 3 3 3 2 3 1 1

Total # of neighbors = 7565
Ave neighs/atom = 0.37828783
Ave special neighs/atom = 36.428743
Neighbor list builds = 0
Dangerous builds = 0
System init for write_data ...
Generated 0 of 0 mixed pair_coeff terms from geometric mixing rule
Generated 0 of 0 mixed pair_coeff terms from geometric mixing rule
Setting up Verlet run ...
  Unit style    : metal
  Current step  : 15000
  Time step     : 0.001
Per MPI rank memory allocation (min/avg/max) = 21.36 | 21.37 | 21.39 Mbytes
   Step         TotEng         PotEng          Temp          E_bond        E_dihed           Lx             Ly             Lz      
     15000   1662.3469      1659.7143      1.0185015      70.99176       1643.9991      398.06986      420.26601      361.75283    
