LAMMPS (3 Nov 2022)
OMP_NUM_THREADS environment is not set. Defaulting to 1 thread. (src/comm.cpp:98)
  using 1 OpenMP thread(s) per MPI task
Reading data file ...
  triclinic box = (0 0 0) to (400 400 400) with tilt (0 0 0)
  4 by 4 by 4 MPI processor grid
  reading atoms ...
  20000 atoms
  scanning bonds ...
  8 = max bonds/atom
  scanning dihedrals ...
  8 = max dihedrals/atom
  reading bonds ...
  58858 bonds
  reading dihedrals ...
  57443 dihedrals
Finding 1-2 1-3 1-4 neighbors ...
  special bond factors lj:    0        0        0       
  special bond factors coul:  0        0        0       
     9 = max # of 1-2 neighbors
    50 = max # of 1-3 neighbors
   315 = max # of 1-4 neighbors
    64 = max # of special neighbors
  special bonds CPU = 0.010 seconds
  read_data CPU = 0.812 seconds
17736 atoms in group 1
Generated 0 of 0 mixed pair_coeff terms from geometric mixing rule
Neighbor list info ...
  update: every = 1 steps, delay = 0 steps, check = yes
  max neighbors/atom: 2000, page size: 100000
  master list distance cutoff = 18
  ghost atom cutoff = 18
  binsize = 9, bins = 45 45 45
  1 neighbor lists, perpetual/occasional/extra = 1 0 0
  (1) pair lj/cut, perpetual
      attributes: half, newton on
      pair build: half/bin/newton/tri
      stencil: half/bin/3d/tri
      bin: standard
Setting up Verlet run ...
  Unit style    : metal
  Current step  : 0
  Time step     : 0.001
Per MPI rank memory allocation (min/avg/max) = 21.22 | 21.23 | 21.25 Mbytes
   Step         TotEng         PotEng          Temp          E_bond        E_dihed           Lx             Ly             Lz      
         0   173.93176      173.93176      0              3.9371387e-22  173.93309      398.44413      400            398.77415    
      1000   188.66378      180.49608      3.1595613      5.9136245      174.59284      399.52741      396            399.5432     
      2000   193.32038      185.70066      2.9475814      7.5850098      182.28266      400.46776      392            400.867      
      3000   197.70471      190.93328      2.6194303      10.140262      193.85094      401.07769      388            401.89698    
      4000   208.99772      202.66643      2.44917        12.436527      209.35708      401.93717      384            403.10428    
      5000   221.91965      216.18189      2.219574       14.084459      226.15838      402.85903      380            404.25515    
      6000   236.18618      230.89412      2.0471589      16.745507      244.22752      404.01175      376            405.81297    
      7000   253.30621      248.16845      1.9874696      19.643662      263.72309      404.72048      372            406.71099    
      8000   271.27798      266.14498      1.985629       22.116014      284.16063      405.33603      368            407.45241    
      9000   293.07945      288.24786      1.8690322      24.96738       305.43606      406.31649      364            408.50799    
     10000   313.06882      307.94914      1.9804788      28.169106      328.13807      407.10148      360            409.33       
     11000   334.54299      329.76971      1.8464784      31.171954      351.74203      407.59696      356            410.09819    
     12000   356.5708       351.85341      1.8248583      34.53744       376.27961      408.4627       352            411.1708     
     13000   381.25814      376.54682      1.822507       36.755408      401.74793      409.2836       348            411.60823    
     14000   406.1922       401.33865      1.8775266      39.087408      426.76084      410.25788      344            411.90657    
     15000   429.04312      424.23859      1.8585663      42.746361      451.60373      410.78341      340            411.87251    
     16000   453.56787      448.76065      1.8596066      46.612587      477.12165      411.87855      336            411.76624    
     17000   478.91815      474.29669      1.7877504      51.184007      502.16493      412.30385      332            411.58085    
     18000   506.7904       501.88982      1.8957192      56.879619      527.99338      412.93427      328            410.65053    
     19000   534.67469      529.22564      2.1078881      62.359567      555.10226      413.27423      324            410.15015    
     20000   560.63675      555.64401      1.9313727      67.641072      582.78749      413.49227      320            410.26141    
     21000   591.11057      586.43432      1.8089434      72.402028      610.74872      413.78151      316            411.03843    
     22000   622.80258      617.08737      2.2108503      79.197765      639.27757      413.98091      312            411.744      
     23000   651.12149      645.9857       1.9867093      87.808955      668.99792      414.39028      308            412.24666    
     24000   680.76373      674.9824       2.2364266      93.432257      699.04511      414.93919      304            412.96124    
     25000   714.19264      709.30001      1.8926482      100.81388      730.28777      415.40363      300            413.41343    
     26000   746.28924      741.18518      1.9744379      106.23278      761.70547      415.78312      296            413.72217    
     27000   783.12841      777.60313      2.1373777      117.63027      792.64485      416.16508      292            414.18648    
     28000   817.65421      812.06735      2.1611964      130.67262      823.99634      416.43642      288            414.33459    
     29000   850.76777      845.36761      2.0889774      141.54868      856.33589      416.62582      284            414.55817    
     30000   886.04384      880.70902      2.0637011      147.65472      888.84737      416.66821      280            414.74395    
     31000   922.58922      917.31206      2.0413979      157.37565      921.98509      416.77629      276            414.79659    
     32000   957.2766       951.69316      2.1598794      167.20487      955.37445      417.23134      272            414.71142    
     33000   995.92337      990.67584      2.0299347      180.1659       990.25756      417.59071      268            414.4528     
     34000   1037.6306      1031.8532      2.234891       192.19452      1025.2485      417.8537       264            414.18537    
     35000   1078.1478      1072.9321      2.0176154      202.75968      1061.3241      418.09226      260            413.8699     
     36000   1120.4026      1114.8657      2.1418829      212.70739      1097.5012      418.25776      256            413.51855    
     37000   1154.0292      1149.0093      1.9418842      215.66324      1134.0802      418.36557      252            413.31454    
     38000   1195.6036      1190.029       2.1564693      227.32427      1169.85        418.47864      248            412.77836    
     39000   1240.3113      1235.003       2.0534626      238.60832      1205.8489      418.53532      244            412.46322    
     40000   1278.7115      1272.7711      2.2979644      248.13015      1241.6933      418.58791      240            412.07824    
     41000   1305.7981      1299.5927      2.400494       253.13957      1276.1588      418.66587      236            411.73926    
     42000   1335.1961      1328.6606      2.5281709      260.63837      1312.0117      418.62449      232            411.24047    
     43000   1376.6262      1371.1825      2.1058542      276.58806      1349.1711      418.44988      228            410.73974    
     44000   1417.8273      1412.3885      2.1039212      289.22184      1386.1224      418.24224      224            410.10556    
     45000   1448.5958      1442.0976      2.5137262      298.46141      1423.5073      418.00797      220            409.55577    
     46000   1496.2114      1490.1153      2.3581753      317.94846      1460.222       417.89782      216            408.75902    
     47000   1543.8849      1537.9629      2.2908317      341.45731      1497.3513      418.02245      212            407.72715    
     48000   1591.19        1585.2051      2.3151826      359.33912      1535.5154      418.11129      208            406.97599    
     49000   1618.3554      1611.9086      2.4938696      370.56607      1570.8051      418.2351       204            406.56004    
     50000   1650.1581      1642.9652      2.7824633      381.47702      1607.4677      418.33459      200            406.42408    
     51000   1665.5067      1658.8215      2.58609        376.16505      1645.7535      418.36659      196            406.05826    
     52000   1707.2637      1700.5243      2.6070471      401.0196       1684.2122      418.28503      192            405.79613    
     53000   1756.1879      1750.1107      2.3508724      423.89488      1722.2173      418.09006      188            406.09888    
     54000   1805.9494      1799.4258      2.5235835      451.92004      1760.3389      417.84554      184            406.47597    
     55000   1861.2965      1855.1355      2.3832909      478.90467      1800.6014      417.69196      180            406.98991    
     56000   1927.8697      1920.1073      3.0027707      522.25619      1842.1071      417.94594      176            407.43955    
     57000   1983.3613      1975.1794      3.1650711      554.29564      1883.8364      417.9733       172            407.80014    
     58000   2042.3549      2036.0182      2.4512669      595.2784       1922.8707      417.91773      168            408.14724    
     59000   2124.5892      2117.2817      2.8268029      648.0657       1965.1185      417.78117      164            408.50873    
     60000   2195.3254      2188.0833      2.8015051      700.60319      2008.5174      417.4864       160            408.79357    
     61000   2241.0582      2231.2127      3.8086223      722.80508      2048.3396      417.0216       156            409.19773    
     62000   2292.9191      2284.5237      3.2476279      751.58829      2087.7413      416.58267      152            409.40871    
     63000   2355.6217      2347.7037      3.0629832      793.38606      2128.4025      416.27638      148            409.5452     
     64000   2409.7892      2401.4002      3.2451576      827.50116      2171.1244      416.03761      144            409.54098    
     65000   2481.5262      2472.5274      3.4810533      886.91759      2213.3941      415.75251      140            410.13474    
     66000   2525.7173      2516.4572      3.5821367      923.58222      2258.5108      415.61106      136            411.07753    
     67000   2582.5487      2570.9223      4.4974876      968.30372      2306.7099      415.38216      132            412.15308    
     68000   2632.4342      2622.3599      3.8971122      1007.0189      2354.6857      415.24684      128            412.74776    
     69000   2703.4078      2692.9741      4.0361151      1055.3889      2400.7867      414.99547      124            413.3022     
     70000   2767.7903      2758.1421      3.7322753      1118.7173      2448.142       414.76678      120            413.76269    
     71000   2836.1677      2824.6602      4.4514977      1178.4881      2498.3472      414.5451       116            414.26866    
     72000   2905.8679      2895.0462      4.1862218      1238.0168      2547.463       414.16275      112            414.68724    
     73000   2961.449       2950.0397      4.4135529      1272.3732      2598.1917      413.76966      108            415.19385    
     74000   3018.8325      3006.748       4.6747137      1305.9402      2648.2171      413.30302      104            415.59144    
     75000   3013.0517      2998.7543      5.5307548      1280.569       2697.9641      413.041        100            415.86132    
Loop time of 80.2479 on 64 procs for 75000 steps with 20000 atoms

Performance: 80.750 ns/day, 0.297 hours/ns, 934.603 timesteps/s, 18.692 Matom-step/s
99.0% CPU use with 64 MPI tasks x 1 OpenMP threads

MPI task timing breakdown:
Section |  min time  |  avg time  |  max time  |%varavg| %total
---------------------------------------------------------------
Pair    | 0.086538   | 0.47257    | 1.8087     |  61.7 |  0.59
Bond    | 7.2615     | 11.407     | 19.458     |  83.9 | 14.21
Neigh   | 0.37703    | 0.42239    | 0.47565    |   3.9 |  0.53
Comm    | 20.397     | 27.486     | 33.944     |  52.7 | 34.25
Output  | 19.884     | 23.282     | 26.353     |  38.7 | 29.01
Modify  | 3.9315     | 9.4705     | 16.313     | 100.4 | 11.80
Other   |            | 7.708      |            |       |  9.60

Nlocal:          312.5 ave         675 max         140 min
Histogram: 11 12 13 8 6 6 2 3 1 2
Nghost:            982 ave        1760 max         450 min
Histogram: 6 8 14 7 12 5 1 2 4 5
Neighs:         3912.7 ave       13783 max         347 min
Histogram: 16 18 9 6 6 1 2 2 2 2

Total # of neighbors = 250413
Ave neighs/atom = 12.52065
Ave special neighs/atom = 36.5259
Neighbor list builds = 311
Dangerous builds = 0
Total wall time: 0:01:21
LAMMPS (3 Nov 2022)
OMP_NUM_THREADS environment is not set. Defaulting to 1 thread. (src/comm.cpp:98)
  using 1 OpenMP thread(s) per MPI task
Reading data file ...
  triclinic box = (0 0 0) to (400 400 400) with tilt (0 0 0)
  4 by 4 by 4 MPI processor grid
  reading atoms ...
  20000 atoms
  scanning bonds ...
  8 = max bonds/atom
  scanning dihedrals ...
  8 = max dihedrals/atom
  reading bonds ...
  58858 bonds
  reading dihedrals ...
  57443 dihedrals
Finding 1-2 1-3 1-4 neighbors ...
  special bond factors lj:    0        0        0       
  special bond factors coul:  0        0        0       
     9 = max # of 1-2 neighbors
    50 = max # of 1-3 neighbors
   315 = max # of 1-4 neighbors
    64 = max # of special neighbors
  special bonds CPU = 0.009 seconds
  read_data CPU = 0.775 seconds
17736 atoms in group 1
ERROR: Expected integer parameter instead of '10*1000' in input script or data file (src/run.cpp:48)
Last command: run ${comp}*1000
--------------------------------------------------------------------------
Primary job  terminated normally, but 1 process returned
a non-zero exit code. Per user-direction, the job has been aborted.
--------------------------------------------------------------------------
--------------------------------------------------------------------------
mpirun detected that one or more processes exited with non-zero status, thus causing
the job to be terminated. The first process to do so was:

  Process name: [[59656,1],24]
  Exit code:    1
--------------------------------------------------------------------------
LAMMPS (3 Nov 2022)
OMP_NUM_THREADS environment is not set. Defaulting to 1 thread. (src/comm.cpp:98)
  using 1 OpenMP thread(s) per MPI task
Reading data file ...
  triclinic box = (0 0 0) to (400 400 400) with tilt (0 0 0)
  4 by 4 by 4 MPI processor grid
  reading atoms ...
  20000 atoms
  scanning bonds ...
  8 = max bonds/atom
  scanning dihedrals ...
  8 = max dihedrals/atom
  reading bonds ...
  58858 bonds
  reading dihedrals ...
  57443 dihedrals
Finding 1-2 1-3 1-4 neighbors ...
  special bond factors lj:    0        0        0       
  special bond factors coul:  0        0        0       
     9 = max # of 1-2 neighbors
    50 = max # of 1-3 neighbors
   315 = max # of 1-4 neighbors
    64 = max # of special neighbors
  special bonds CPU = 0.009 seconds
  read_data CPU = 0.690 seconds
17736 atoms in group 1
Generated 0 of 0 mixed pair_coeff terms from geometric mixing rule
Neighbor list info ...
  update: every = 1 steps, delay = 0 steps, check = yes
  max neighbors/atom: 2000, page size: 100000
  master list distance cutoff = 18
  ghost atom cutoff = 18
  binsize = 9, bins = 45 45 45
  1 neighbor lists, perpetual/occasional/extra = 1 0 0
  (1) pair lj/cut, perpetual
      attributes: half, newton on
      pair build: half/bin/newton/tri
      stencil: half/bin/3d/tri
      bin: standard
Setting up Verlet run ...
  Unit style    : metal
  Current step  : 0
  Time step     : 0.001
Per MPI rank memory allocation (min/avg/max) = 21.22 | 21.23 | 21.25 Mbytes
   Step         TotEng         PotEng          Temp          E_bond        E_dihed           Lx             Ly             Lz      
         0   173.93176      173.93176      0              3.9371387e-22  173.93309      398.44413      400            398.77415    
      1000   188.66378      180.49608      3.1595613      5.9136245      174.59284      399.52741      396            399.5432     
      2000   193.32038      185.70066      2.9475814      7.5850098      182.28266      400.46776      392            400.867      
      3000   197.70471      190.93328      2.6194303      10.140262      193.85094      401.07769      388            401.89698    
      4000   208.99772      202.66643      2.44917        12.436527      209.35708      401.93717      384            403.10428    
      5000   221.91965      216.18189      2.219574       14.084459      226.15838      402.85903      380            404.25515    
      6000   236.18618      230.89412      2.0471589      16.745507      244.22752      404.01175      376            405.81297    
      7000   253.30621      248.16845      1.9874696      19.643662      263.72309      404.72048      372            406.71099    
      8000   271.27798      266.14498      1.985629       22.116014      284.16063      405.33603      368            407.45241    
      9000   293.07945      288.24786      1.8690322      24.96738       305.43606      406.31649      364            408.50799    
     10000   313.06882      307.94914      1.9804788      28.169106      328.13807      407.10148      360            409.33       
     11000   334.54299      329.76971      1.8464784      31.171954      351.74203      407.59696      356            410.09819    
     12000   356.5708       351.85341      1.8248583      34.53744       376.27961      408.4627       352            411.1708     
     13000   381.25814      376.54682      1.822507       36.755408      401.74793      409.2836       348            411.60823    
     14000   406.1922       401.33865      1.8775266      39.087408      426.76084      410.25788      344            411.90657    
     15000   429.04312      424.23859      1.8585663      42.746361      451.60373      410.78341      340            411.87251    
     16000   453.56787      448.76065      1.8596066      46.612587      477.12165      411.87855      336            411.76624    
     17000   478.91815      474.29669      1.7877504      51.184007      502.16493      412.30385      332            411.58085    
     18000   506.7904       501.88982      1.8957192      56.879619      527.99338      412.93427      328            410.65053    
     19000   534.67469      529.22564      2.1078881      62.359567      555.10226      413.27423      324            410.15015    
     20000   560.63675      555.64401      1.9313727      67.641072      582.78749      413.49227      320            410.26141    
     21000   591.11057      586.43432      1.8089434      72.402028      610.74872      413.78151      316            411.03843    
     22000   622.80258      617.08737      2.2108503      79.197765      639.27757      413.98091      312            411.744      
     23000   651.12149      645.9857       1.9867093      87.808955      668.99792      414.39028      308            412.24666    
     24000   680.76373      674.9824       2.2364266      93.432257      699.04511      414.93919      304            412.96124    
     25000   714.19264      709.30001      1.8926482      100.81388      730.28777      415.40363      300            413.41343    
     26000   746.28924      741.18518      1.9744379      106.23278      761.70547      415.78312      296            413.72217    
     27000   783.12841      777.60313      2.1373777      117.63027      792.64485      416.16508      292            414.18648    
     28000   817.65421      812.06735      2.1611964      130.67262      823.99634      416.43642      288            414.33459    
     29000   850.76777      845.36761      2.0889774      141.54868      856.33589      416.62582      284            414.55817    
     30000   886.04384      880.70902      2.0637011      147.65472      888.84737      416.66821      280            414.74395    
     31000   922.58922      917.31206      2.0413979      157.37565      921.98509      416.77629      276            414.79659    
     32000   957.2766       951.69316      2.1598794      167.20487      955.37445      417.23134      272            414.71142    
     33000   995.92337      990.67584      2.0299347      180.1659       990.25756      417.59071      268            414.4528     
     34000   1037.6306      1031.8532      2.234891       192.19452      1025.2485      417.8537       264            414.18537    
     35000   1078.1478      1072.9321      2.0176154      202.75968      1061.3241      418.09226      260            413.8699     
     36000   1120.4026      1114.8657      2.1418829      212.70739      1097.5012      418.25776      256            413.51855    
     37000   1154.0292      1149.0093      1.9418842      215.66324      1134.0802      418.36557      252            413.31454    
     38000   1195.6036      1190.029       2.1564693      227.32427      1169.85        418.47864      248            412.77836    
     39000   1240.3113      1235.003       2.0534626      238.60832      1205.8489      418.53532      244            412.46322    
     40000   1278.7115      1272.7711      2.2979644      248.13015      1241.6933      418.58791      240            412.07824    
     41000   1305.7981      1299.5927      2.400494       253.13957      1276.1588      418.66587      236            411.73926    
     42000   1335.1961      1328.6606      2.5281709      260.63837      1312.0117      418.62449      232            411.24047    
     43000   1376.6262      1371.1825      2.1058542      276.58806      1349.1711      418.44988      228            410.73974    
     44000   1417.8273      1412.3885      2.1039212      289.22184      1386.1224      418.24224      224            410.10556    
     45000   1448.5958      1442.0976      2.5137262      298.46141      1423.5073      418.00797      220            409.55577    
     46000   1496.2114      1490.1153      2.3581753      317.94846      1460.222       417.89782      216            408.75902    
     47000   1543.8849      1537.9629      2.2908317      341.45731      1497.3513      418.02245      212            407.72715    
     48000   1591.19        1585.2051      2.3151826      359.33912      1535.5154      418.11129      208            406.97599    
     49000   1618.3554      1611.9086      2.4938696      370.56607      1570.8051      418.2351       204            406.56004    
     50000   1650.1581      1642.9652      2.7824633      381.47702      1607.4677      418.33459      200            406.42408    
     51000   1665.5067      1658.8215      2.58609        376.16505      1645.7535      418.36659      196            406.05826    
     52000   1707.2637      1700.5243      2.6070471      401.0196       1684.2122      418.28503      192            405.79613    
     53000   1756.1879      1750.1107      2.3508724      423.89488      1722.2173      418.09006      188            406.09888    
     54000   1805.9494      1799.4258      2.5235835      451.92004      1760.3389      417.84554      184            406.47597    
     55000   1861.2965      1855.1355      2.3832909      478.90467      1800.6014      417.69196      180            406.98991    
     56000   1927.8697      1920.1073      3.0027707      522.25619      1842.1071      417.94594      176            407.43955    
     57000   1983.3613      1975.1794      3.1650711      554.29564      1883.8364      417.9733       172            407.80014    
     58000   2042.3549      2036.0182      2.4512669      595.2784       1922.8707      417.91773      168            408.14724    
     59000   2124.5892      2117.2817      2.8268029      648.0657       1965.1185      417.78117      164            408.50873    
     60000   2195.3254      2188.0833      2.8015051      700.60319      2008.5174      417.4864       160            408.79357    
     61000   2241.0582      2231.2127      3.8086223      722.80508      2048.3396      417.0216       156            409.19773    
     62000   2292.9191      2284.5237      3.2476279      751.58829      2087.7413      416.58267      152            409.40871    
     63000   2355.6217      2347.7037      3.0629832      793.38606      2128.4025      416.27638      148            409.5452     
     64000   2409.7892      2401.4002      3.2451576      827.50116      2171.1244      416.03761      144            409.54098    
     65000   2481.5262      2472.5274      3.4810533      886.91759      2213.3941      415.75251      140            410.13474    
     66000   2525.7173      2516.4572      3.5821367      923.58222      2258.5108      415.61106      136            411.07753    
     67000   2582.5487      2570.9223      4.4974876      968.30372      2306.7099      415.38216      132            412.15308    
     68000   2632.4342      2622.3599      3.8971122      1007.0189      2354.6857      415.24684      128            412.74776    
     69000   2703.4078      2692.9741      4.0361151      1055.3889      2400.7867      414.99547      124            413.3022     
     70000   2767.7903      2758.1421      3.7322753      1118.7173      2448.142       414.76678      120            413.76269    
     71000   2836.1677      2824.6602      4.4514977      1178.4881      2498.3472      414.5451       116            414.26866    
     72000   2905.8679      2895.0462      4.1862218      1238.0168      2547.463       414.16275      112            414.68724    
     73000   2961.449       2950.0397      4.4135529      1272.3732      2598.1917      413.76966      108            415.19385    
     74000   3018.8325      3006.748       4.6747137      1305.9402      2648.2171      413.30302      104            415.59144    
     75000   3013.0517      2998.7543      5.5307548      1280.569       2697.9641      413.041        100            415.86132    
Loop time of 65.584 on 64 procs for 75000 steps with 20000 atoms

Performance: 98.805 ns/day, 0.243 hours/ns, 1143.571 timesteps/s, 22.871 Matom-step/s
99.2% CPU use with 64 MPI tasks x 1 OpenMP threads

MPI task timing breakdown:
Section |  min time  |  avg time  |  max time  |%varavg| %total
---------------------------------------------------------------
Pair    | 0.086739   | 0.47122    | 1.868      |  61.5 |  0.72
Bond    | 7.3021     | 11.569     | 19.973     |  87.6 | 17.64
Neigh   | 0.35669    | 0.39409    | 0.44858    |   3.5 |  0.60
Comm    | 17.667     | 24.81      | 30.537     |  54.0 | 37.83
Output  | 17.412     | 19.931     | 22.649     |  35.2 | 30.39
Modify  | 2.2632     | 4.7814     | 12.329     |  94.3 |  7.29
Other   |            | 3.627      |            |       |  5.53

Nlocal:          312.5 ave         675 max         140 min
Histogram: 11 12 13 8 6 6 2 3 1 2
Nghost:            982 ave        1760 max         450 min
Histogram: 6 8 14 7 12 5 1 2 4 5
Neighs:         3912.7 ave       13783 max         347 min
Histogram: 16 18 9 6 6 1 2 2 2 2

Total # of neighbors = 250413
Ave neighs/atom = 12.52065
Ave special neighs/atom = 36.5259
Neighbor list builds = 311
Dangerous builds = 0
Total wall time: 0:01:07
LAMMPS (3 Nov 2022)
OMP_NUM_THREADS environment is not set. Defaulting to 1 thread. (src/comm.cpp:98)
  using 1 OpenMP thread(s) per MPI task
Reading data file ...
  triclinic box = (0 0 0) to (400 400 400) with tilt (0 0 0)
  4 by 4 by 4 MPI processor grid
  reading atoms ...
  20000 atoms
  scanning bonds ...
  8 = max bonds/atom
  scanning dihedrals ...
  8 = max dihedrals/atom
  reading bonds ...
  58858 bonds
  reading dihedrals ...
  57443 dihedrals
Finding 1-2 1-3 1-4 neighbors ...
  special bond factors lj:    0        0        0       
  special bond factors coul:  0        0        0       
     9 = max # of 1-2 neighbors
    50 = max # of 1-3 neighbors
   315 = max # of 1-4 neighbors
    64 = max # of special neighbors
  special bonds CPU = 0.009 seconds
  read_data CPU = 0.773 seconds
17736 atoms in group 1
Generated 0 of 0 mixed pair_coeff terms from geometric mixing rule
Neighbor list info ...
  update: every = 1 steps, delay = 0 steps, check = yes
  max neighbors/atom: 2000, page size: 100000
  master list distance cutoff = 18
  ghost atom cutoff = 18
  binsize = 9, bins = 45 45 45
  1 neighbor lists, perpetual/occasional/extra = 1 0 0
  (1) pair lj/cut, perpetual
      attributes: half, newton on
      pair build: half/bin/newton/tri
      stencil: half/bin/3d/tri
      bin: standard
Setting up Verlet run ...
  Unit style    : metal
  Current step  : 0
  Time step     : 0.001
Per MPI rank memory allocation (min/avg/max) = 21.22 | 21.23 | 21.26 Mbytes
   Step         TotEng         PotEng          Temp          E_bond        E_dihed           Lx             Ly             Lz      
         0   173.93049      173.93049      0              2.6637868e-12  173.93309      398.44413      397.48794      400          
      1000   186.39771      179.16881      2.7964005      5.1573509      174.02136      399.06656      398.71573      396          
      2000   190.69529      184.39151      2.4385304      6.602844       180.01842      399.25545      401.67051      392          
      3000   193.36729      187.60016      2.2309335      8.2299624      188.43668      399.72143      402.69458      388          
      4000   202.89296      197.83678      1.9559102      9.4321394      200.50869      400.08874      403.53381      384          
      5000   212.60686      207.30086      2.0525529      11.268805      213.07962      400.61743      404.20917      380          
      6000   220.32952      215.26611      1.958708       12.880381      226.44095      401.49723      404.97645      376          
      7000   231.10761      225.71312      2.0867827      15.305698      241.55049      402.21104      405.60403      372          
      8000   243.80012      238.98275      1.8635345      16.809         257.77099      402.66028      406.00892      368          
      9000   258.42725      254.25606      1.6135686      18.530903      275.85051      403.73971      406.4855       364          
     10000   276.00705      271.92419      1.5793976      20.749948      294.48512      404.64153      406.75203      360          
Loop time of 6.89757 on 64 procs for 10000 steps with 20000 atoms

Performance: 125.261 ns/day, 0.192 hours/ns, 1449.785 timesteps/s, 28.996 Matom-step/s
99.2% CPU use with 64 MPI tasks x 1 OpenMP threads

MPI task timing breakdown:
Section |  min time  |  avg time  |  max time  |%varavg| %total
---------------------------------------------------------------
Pair    | 0.0093805  | 0.014069   | 0.027704   |   3.8 |  0.20
Bond    | 1.1237     | 1.477      | 1.8881     |  12.4 | 21.41
Neigh   | 0.010917   | 0.012333   | 0.014835   |   0.8 |  0.18
Comm    | 1.5896     | 2.1205     | 2.4612     |  11.5 | 30.74
Output  | 1.9414     | 2.3762     | 2.7798     |  16.1 | 34.45
Modify  | 0.21322    | 0.40304    | 0.59959    |  13.0 |  5.84
Other   |            | 0.4944     |            |       |  7.17

Nlocal:          312.5 ave         364 max         257 min
Histogram: 4 6 4 7 8 8 8 11 4 4
Nghost:        416.484 ave         641 max         214 min
Histogram: 2 8 11 7 9 7 4 5 6 5
Neighs:        98.9375 ave         466 max           0 min
Histogram: 32 4 10 7 2 1 1 4 2 1

Total # of neighbors = 6332
Ave neighs/atom = 0.3166
Ave special neighs/atom = 36.5259
Neighbor list builds = 25
Dangerous builds = 0
ERROR: Could not find fix ID deform to delete (src/modify.cpp:1046)
Last command: unfix deform
--------------------------------------------------------------------------
Primary job  terminated normally, but 1 process returned
a non-zero exit code. Per user-direction, the job has been aborted.
--------------------------------------------------------------------------
--------------------------------------------------------------------------
mpirun detected that one or more processes exited with non-zero status, thus causing
the job to be terminated. The first process to do so was:

  Process name: [[58705,1],7]
  Exit code:    1
--------------------------------------------------------------------------
LAMMPS (3 Nov 2022)
OMP_NUM_THREADS environment is not set. Defaulting to 1 thread. (src/comm.cpp:98)
  using 1 OpenMP thread(s) per MPI task
Reading data file ...
  triclinic box = (0 0 0) to (400 400 400) with tilt (0 0 0)
  4 by 4 by 4 MPI processor grid
  reading atoms ...
  20000 atoms
  scanning bonds ...
  8 = max bonds/atom
  scanning dihedrals ...
  8 = max dihedrals/atom
  reading bonds ...
  58858 bonds
  reading dihedrals ...
  57443 dihedrals
Finding 1-2 1-3 1-4 neighbors ...
  special bond factors lj:    0        0        0       
  special bond factors coul:  0        0        0       
     9 = max # of 1-2 neighbors
    50 = max # of 1-3 neighbors
   315 = max # of 1-4 neighbors
    64 = max # of special neighbors
  special bonds CPU = 0.009 seconds
  read_data CPU = 0.656 seconds
17736 atoms in group 1
Generated 0 of 0 mixed pair_coeff terms from geometric mixing rule
Neighbor list info ...
  update: every = 1 steps, delay = 0 steps, check = yes
  max neighbors/atom: 2000, page size: 100000
  master list distance cutoff = 18
  ghost atom cutoff = 18
  binsize = 9, bins = 45 45 45
  1 neighbor lists, perpetual/occasional/extra = 1 0 0
  (1) pair lj/cut, perpetual
      attributes: half, newton on
      pair build: half/bin/newton/tri
      stencil: half/bin/3d/tri
      bin: standard
Setting up Verlet run ...
  Unit style    : metal
  Current step  : 0
  Time step     : 0.001
Per MPI rank memory allocation (min/avg/max) = 21.22 | 21.23 | 21.25 Mbytes
   Step         TotEng         PotEng          Temp          E_bond        E_dihed           Lx             Ly             Lz      
         0   173.93176      173.93176      0              2.6469871e-12  173.93309      398.44413      400            398.77415    
      1000   188.66378      180.49608      3.1595613      5.9136245      174.59284      399.52741      396            399.5432     
      2000   193.32038      185.70066      2.9475814      7.5850097      182.28266      400.46776      392            400.867      
      3000   197.70471      190.93328      2.6194303      10.140262      193.85094      401.07769      388            401.89698    
      4000   208.99772      202.66643      2.4491699      12.436527      209.35708      401.93717      384            403.10428    
      5000   221.91965      216.18189      2.219574       14.084459      226.15838      402.85903      380            404.25515    
      6000   236.18618      230.89412      2.0471589      16.745507      244.22752      404.01175      376            405.81297    
      7000   253.30621      248.16845      1.9874697      19.643662      263.72309      404.72048      372            406.71099    
      8000   271.27798      266.14498      1.9856288      22.116015      284.16063      405.33603      368            407.45241    
      9000   293.07945      288.24787      1.8690305      24.967386      305.43606      406.31649      364            408.50799    
     10000   313.06882      307.94914      1.9804786      28.169107      328.13807      407.10148      360            409.33       
     11000   334.54299      329.76971      1.8464777      31.171956      351.74203      407.59696      356            410.09819    
     12000   356.5708       351.85341      1.8248584      34.537439      376.27961      408.4627       352            411.1708     
     13000   381.25814      376.54683      1.8225067      36.755409      401.74793      409.2836       348            411.60823    
     14000   406.1922       401.33865      1.8775267      39.087411      426.76084      410.25788      344            411.90657    
     15000   429.04312      424.2386       1.8585647      42.746361      451.60373      410.78341      340            411.87251    
     16000   453.56786      448.76065      1.8596022      46.612588      477.12166      411.87855      336            411.76624    
     17000   478.91815      474.29669      1.7877506      51.184006      502.16493      412.30385      332            411.58085    
     18000   506.7904       501.88983      1.8957186      56.879618      527.99338      412.93427      328            410.65053    
     19000   534.67479      529.22583      2.1078526      62.359753      555.10225      413.27423      324            410.15015    
     20000   560.63677      555.64403      1.931373       67.64109       582.7875       413.49227      320            410.26141    
     21000   591.11062      586.43436      1.8089462      72.402183      610.74861      413.7815       316            411.03845    
     22000   622.80245      617.08691      2.2109783      79.198448      639.27757      413.98091      312            411.74402    
     23000   651.12149      645.98569      1.9867129      87.808969      668.9979       414.39028      308            412.24667    
     24000   680.76354      674.98212      2.236464       93.432838      699.04505      414.93919      304            412.96123    
     25000   714.19256      709.29994      1.8926446      100.81379      730.28781      415.40362      300            413.41342    
     26000   746.28923      741.18509      1.9744683      106.23275      761.70542      415.78312      296            413.72215    
     27000   783.12847      777.60451      2.1368666      117.62961      792.64482      416.16508      292            414.18647    
     28000   817.65421      812.06856      2.1607315      130.67352      823.99637      416.43642      288            414.33459    
     29000   850.76842      845.36854      2.0888706      141.54846      856.33642      416.62582      284            414.55818    
     30000   886.04463      880.70994      2.0636518      147.65609      888.84693      416.66821      280            414.74394    
     31000   922.5891       917.31189      2.041416       157.37618      921.98487      416.7762       276            414.79661    
     32000   957.27744      951.69158      2.1608121      167.20409      955.37368      417.23134      272            414.71143    
     33000   995.92428      990.67635      2.0300903      180.16664      990.25737      417.59071      268            414.45281    
     34000   1037.6297      1031.8572      2.2329965      192.19932      1025.2477      417.85393      264            414.1851     
     35000   1078.1486      1072.9326      2.0177517      202.76036      1061.3239      418.09226      260            413.8699     
     36000   1120.4036      1114.8654      2.1423731      212.70709      1097.5012      418.25777      256            413.51855    
     37000   1154.0294      1149.009       1.9420432      215.66326      1134.0802      418.36557      252            413.31456    
     38000   1195.6036      1190.0327      2.1550319      227.32802      1169.8496      418.47864      248            412.77837    
     39000   1240.3126      1235.0039      2.0535827      238.6088       1205.8493      418.53532      244            412.46323    
     40000   1278.7193      1272.7816      2.2969504      248.14146      1241.6928      418.5879       240            412.07824    
     41000   1305.8023      1299.6101      2.3953623      253.15617      1276.1588      418.66537      236            411.73885    
     42000   1335.195       1328.6566      2.5292764      260.63299      1312.0099      418.62418      232            411.24051    
     43000   1376.6135      1371.192       2.0972355      276.54384      1349.1635      418.44941      228            410.73979    
     44000   1417.8584      1412.4295      2.10012        289.20324      1386.1192      418.24215      224            410.10547    
     45000   1448.7342      1442.3344      2.4756599      298.55395      1423.4933      418.00752      220            409.55021    
     46000   1496.3032      1490.2689      2.3342781      318.10019      1460.196       417.8981       216            408.76392    
     47000   1545.245       1539.2914      2.3030572      340.85354      1497.4102      418.02196      212            407.74415    
     48000   1591.2851      1585.277       2.3241356      359.37142      1535.5099      418.11186      208            406.96917    
     49000   1618.453       1611.9968      2.4974812      370.58796      1570.8095      418.23628      204            406.55539    
     50000   1649.9597      1642.7448      2.7909684      381.45591      1607.4781      418.33482      200            406.42482    
     51000   1665.3628      1658.6789      2.585576       375.98843      1645.7557      418.36749      196            406.06223    
     52000   1707.2154      1700.5         2.5977845      401.05393      1684.1975      418.2859       192            405.80116    
     53000   1755.9418      1749.7673      2.3885494      423.32135      1722.2589      418.08958      188            406.101      
     54000   1806.0018      1799.4592      2.5309017      451.94384      1760.2902      417.8451       184            406.47601    
     55000   1861.0528      1854.8558      2.3972096      477.16427      1800.9948      417.70544      180            406.94335    
     56000   1929.6807      1922.7795      2.6696245      522.23704      1841.982       417.94856      176            407.4609     
     57000   1981.2324      1972.7485      3.2818519      552.20005      1884.2958      417.9748       172            407.80029    
     58000   2041.4885      2034.9787      2.5182481      593.80767      1923.308       417.91515      168            408.14641    
     59000   2124.366       2116.3563      3.0984057      647.20667      1965.1125      417.78077      164            408.52273    
     60000   2197.2093      2189.8631      2.8417582      700.39799      2007.8449      417.41336      160            408.86125    
     61000   2237.1396      2226.8397      3.9843471      718.88176      2047.2421      417.01028      156            409.20859    
     62000   2285.127       2277.3041      3.0261979      740.02713      2086.2388      416.51303      152            409.41849    
     63000   2349.6348      2341.9262      2.9819513      785.66557      2127.7552      416.23757      148            409.53765    
     64000   2404.4551      2394.8777      3.7049122      819.92809      2169.4547      416.01756      144            409.52775    
     65000   2462.5317      2453.4815      3.5009717      869.23514      2210.643       415.8305       140            410.17987    
     66000   2516.703       2506.9952      3.7553065      922.15618      2254.4569      415.68161      136            410.93372    
     67000   2558.289       2548.9396      3.6166969      956.50919      2301.8728      415.46843      132            411.94002    
     68000   2647.9625      2637.6733      3.9802265      1023.3515      2347.9549      415.29852      128            412.69873    
     69000   2719.4408      2709.6817      3.7751576      1082.8476      2393.5582      415.09656      124            413.21439    
     70000   2768.057       2757.5891      4.0493744      1118.6035      2440.2111      414.77119      120            413.66937    
     71000   2831.6628      2821.6197      3.8850068      1185.521       2487.7002      414.44651      116            414.31337    
     72000   2898.0862      2886.5079      4.4789018      1251.8952      2536.8628      414.40367      112            414.79366    
     73000   2982.2878      2972.172       3.9131616      1329.4321      2588.0004      414.23356      108            415.52673    
     74000   3050.3852      3037.4072      5.0203954      1381.6328      2636.0933      413.87687      104            415.86413    
     75000   3122.5654      3111.5963      4.243251       1452.9475      2683.3162      413.20197      100            416.25082    
Loop time of 71.6578 on 64 procs for 75000 steps with 20000 atoms

Performance: 90.430 ns/day, 0.265 hours/ns, 1046.641 timesteps/s, 20.933 Matom-step/s
99.2% CPU use with 64 MPI tasks x 1 OpenMP threads

MPI task timing breakdown:
Section |  min time  |  avg time  |  max time  |%varavg| %total
---------------------------------------------------------------
Pair    | 0.082684   | 0.42963    | 1.7338     |  57.9 |  0.60
Bond    | 7.1185     | 11.108     | 18.326     |  75.5 | 15.50
Neigh   | 0.33278    | 0.37904    | 0.43514    |   4.0 |  0.53
Comm    | 21.804     | 27.346     | 32.786     |  45.8 | 38.16
Output  | 20.21      | 23.182     | 26.337     |  39.4 | 32.35
Modify  | 2.0917     | 5.1677     | 12.491     | 108.8 |  7.21
Other   |            | 4.046      |            |       |  5.65

Nlocal:          312.5 ave         674 max         132 min
Histogram: 8 14 12 9 5 8 3 2 0 3
Nghost:        984.422 ave        1743 max         439 min
Histogram: 5 8 13 8 11 7 1 2 3 6
Neighs:        3967.92 ave       14872 max         374 min
Histogram: 21 17 7 7 4 1 2 2 1 2

Total # of neighbors = 253947
Ave neighs/atom = 12.69735
Ave special neighs/atom = 36.5259
Neighbor list builds = 305
Dangerous builds = 0
Total wall time: 0:01:13
LAMMPS (3 Nov 2022)
OMP_NUM_THREADS environment is not set. Defaulting to 1 thread. (src/comm.cpp:98)
  using 1 OpenMP thread(s) per MPI task
Reading data file ...
  triclinic box = (0 0 0) to (400 400 400) with tilt (0 0 0)
  4 by 4 by 4 MPI processor grid
  reading atoms ...
  20000 atoms
  scanning bonds ...
  8 = max bonds/atom
  scanning dihedrals ...
  8 = max dihedrals/atom
  reading bonds ...
  58858 bonds
  reading dihedrals ...
  57443 dihedrals
Finding 1-2 1-3 1-4 neighbors ...
  special bond factors lj:    0        0        0       
  special bond factors coul:  0        0        0       
     9 = max # of 1-2 neighbors
    50 = max # of 1-3 neighbors
   315 = max # of 1-4 neighbors
    64 = max # of special neighbors
  special bonds CPU = 0.008 seconds
  read_data CPU = 0.555 seconds
17736 atoms in group 1
Generated 0 of 0 mixed pair_coeff terms from geometric mixing rule
Neighbor list info ...
  update: every = 1 steps, delay = 0 steps, check = yes
  max neighbors/atom: 2000, page size: 100000
  master list distance cutoff = 18
  ghost atom cutoff = 18
  binsize = 9, bins = 45 45 45
  1 neighbor lists, perpetual/occasional/extra = 1 0 0
  (1) pair lj/cut, perpetual
      attributes: half, newton on
      pair build: half/bin/newton/tri
      stencil: half/bin/3d/tri
      bin: standard
Setting up Verlet run ...
  Unit style    : metal
  Current step  : 0
  Time step     : 0.001
Per MPI rank memory allocation (min/avg/max) = 21.22 | 21.23 | 21.26 Mbytes
   Step         TotEng         PotEng          Temp          E_bond        E_dihed           Lx             Ly             Lz      
         0   173.93049      173.93049      0              1.3309946e-22  173.93309      398.44413      397.48794      400          
      1000   186.39771      179.16881      2.7964005      5.1573509      174.02136      399.06656      398.71573      396          
      2000   190.69529      184.39151      2.4385304      6.602844       180.01842      399.25545      401.67051      392          
      3000   193.36729      187.60016      2.2309335      8.2299624      188.43668      399.72143      402.69458      388          
      4000   202.89296      197.83678      1.9559103      9.4321394      200.50869      400.08874      403.53381      384          
      5000   212.60686      207.30086      2.0525529      11.268805      213.07962      400.61743      404.20917      380          
      6000   220.32952      215.26611      1.9587079      12.880382      226.44095      401.49723      404.97645      376          
      7000   231.10761      225.71312      2.0867832      15.305698      241.55049      402.21104      405.60403      372          
      8000   243.80012      238.98275      1.8635347      16.809         257.77099      402.66028      406.00892      368          
      9000   258.42725      254.25606      1.6135686      18.530903      275.85051      403.73971      406.4855       364          
     10000   276.00705      271.92419      1.5793976      20.749948      294.48512      404.64153      406.75203      360          
Loop time of 7.61467 on 64 procs for 10000 steps with 20000 atoms

Performance: 113.465 ns/day, 0.212 hours/ns, 1313.254 timesteps/s, 26.265 Matom-step/s
99.3% CPU use with 64 MPI tasks x 1 OpenMP threads

MPI task timing breakdown:
Section |  min time  |  avg time  |  max time  |%varavg| %total
---------------------------------------------------------------
Pair    | 0.0074828  | 0.01134    | 0.023136   |   3.4 |  0.15
Bond    | 0.99927    | 1.3098     | 1.5275     |  10.2 | 17.20
Neigh   | 0.0081654  | 0.010589   | 0.014412   |   1.4 |  0.14
Comm    | 2.5517     | 2.9212     | 3.2507     |   8.9 | 38.36
Output  | 2.0021     | 2.4674     | 2.933      |  17.2 | 32.40
Modify  | 0.16735    | 0.35936    | 0.65175    |  16.8 |  4.72
Other   |            | 0.5349     |            |       |  7.03

Nlocal:          312.5 ave         364 max         257 min
Histogram: 4 6 4 7 8 8 8 11 4 4
Nghost:        416.484 ave         641 max         214 min
Histogram: 2 8 11 7 9 7 4 5 6 5
Neighs:        98.9375 ave         466 max           0 min
Histogram: 32 4 10 7 2 1 1 4 2 1

Total # of neighbors = 6332
Ave neighs/atom = 0.3166
Ave special neighs/atom = 36.5259
Neighbor list builds = 25
Dangerous builds = 0
Generated 0 of 0 mixed pair_coeff terms from geometric mixing rule
Setting up Verlet run ...
  Unit style    : metal
  Current step  : 10000
  Time step     : 0.001
Per MPI rank memory allocation (min/avg/max) = 21.23 | 21.24 | 21.26 Mbytes
   Step         TotEng         PotEng          Temp          E_bond        E_dihed           Lx             Ly             Lz      
     10000   276.05176      271.9689       1.5793976      20.794076      294.48577      404.88417      406.81841      360          
     11000   262.50942      259.70257      1.0857922      17.047493      288.67343      405.33124      406.87532      360          
     12000   250.6114       247.37874      1.2505127      16.324757      283.14076      405.97922      406.73462      360          
     13000   241.42885      238.70528      1.0535737      14.492927      278.34884      406.2602       406.59538      360          
     14000   234.37604      231.64672      1.0558024      13.798535      273.27859      406.59063      406.5458       360          
     15000   226.11316      223.24431      1.1097774      13.696968      269.54779      407.13425      406.60531      360          
     16000   218.55338      216.04254      0.97128183     13.256449      266.66645      407.5123       406.64848      360          
     17000   211.92502      209.32291      1.0065885      13.450504      263.76191      407.87768      406.61715      360          
     18000   205.66441      202.80381      1.1065855      13.253634      261.53427      408.22035      406.75589      360          
     19000   200.25869      197.39098      1.1093323      13.073137      259.19679      408.41533      406.73022      360          
     20000   196.05755      193.36671      1.0409152      12.280347      256.93829      408.63803      407.19519      360          
Loop time of 7.64181 on 64 procs for 10000 steps with 20000 atoms

Performance: 113.062 ns/day, 0.212 hours/ns, 1308.590 timesteps/s, 26.172 Matom-step/s
99.4% CPU use with 64 MPI tasks x 1 OpenMP threads

MPI task timing breakdown:
Section |  min time  |  avg time  |  max time  |%varavg| %total
---------------------------------------------------------------
Pair    | 0.0074276  | 0.01374    | 0.031414   |   5.6 |  0.18
Bond    | 1.0318     | 1.3111     | 1.5464     |  10.1 | 17.16
Neigh   | 0.0046251  | 0.0058764  | 0.0083601  |   1.1 |  0.08
Comm    | 2.6928     | 3.0101     | 3.2955     |   8.2 | 39.39
Output  | 1.9596     | 2.4212     | 2.881      |  17.4 | 31.68
Modify  | 0.1264     | 0.35695    | 0.68848    |  21.9 |  4.67
Other   |            | 0.5228     |            |       |  6.84

Nlocal:          312.5 ave         381 max         248 min
Histogram: 4 6 6 7 10 11 6 8 2 4
Nghost:        418.891 ave         657 max         210 min
Histogram: 6 4 10 8 10 6 5 6 5 4
Neighs:        127.984 ave         535 max           0 min
Histogram: 31 5 7 7 2 3 1 3 1 4

Total # of neighbors = 8191
Ave neighs/atom = 0.40955
Ave special neighs/atom = 36.5259
Neighbor list builds = 13
Dangerous builds = 0
Total wall time: 0:00:15
LAMMPS (3 Nov 2022)
OMP_NUM_THREADS environment is not set. Defaulting to 1 thread. (src/comm.cpp:98)
  using 1 OpenMP thread(s) per MPI task
Reading data file ...
  triclinic box = (0 0 0) to (400 400 400) with tilt (0 0 0)
  4 by 4 by 4 MPI processor grid
  reading atoms ...
  20000 atoms
  scanning bonds ...
  8 = max bonds/atom
  scanning dihedrals ...
  8 = max dihedrals/atom
  reading bonds ...
  58858 bonds
  reading dihedrals ...
  57443 dihedrals
Finding 1-2 1-3 1-4 neighbors ...
  special bond factors lj:    0        0        0       
  special bond factors coul:  0        0        0       
     9 = max # of 1-2 neighbors
    50 = max # of 1-3 neighbors
   315 = max # of 1-4 neighbors
    64 = max # of special neighbors
  special bonds CPU = 0.008 seconds
  read_data CPU = 0.579 seconds
17736 atoms in group 1
Generated 0 of 0 mixed pair_coeff terms from geometric mixing rule
Neighbor list info ...
  update: every = 1 steps, delay = 0 steps, check = yes
  max neighbors/atom: 2000, page size: 100000
  master list distance cutoff = 18
  ghost atom cutoff = 18
  binsize = 9, bins = 45 45 45
  1 neighbor lists, perpetual/occasional/extra = 1 0 0
  (1) pair lj/cut, perpetual
      attributes: half, newton on
      pair build: half/bin/newton/tri
      stencil: half/bin/3d/tri
      bin: standard
Setting up Verlet run ...
  Unit style    : metal
  Current step  : 0
  Time step     : 0.001
Per MPI rank memory allocation (min/avg/max) = 21.22 | 21.23 | 21.25 Mbytes
   Step         TotEng         PotEng          Temp          E_bond        E_dihed           Lx             Ly             Lz      
         0   173.93176      173.93176      0              3.9371387e-22  173.93309      398.44413      400            398.77415    
      1000   188.66378      180.49608      3.1595613      5.9136245      174.59284      399.52741      396            399.5432     
      2000   193.32038      185.70066      2.9475814      7.5850098      182.28266      400.46776      392            400.867      
      3000   197.70471      190.93328      2.6194303      10.140262      193.85094      401.07769      388            401.89698    
      4000   208.99772      202.66643      2.44917        12.436527      209.35708      401.93717      384            403.10428    
      5000   221.91965      216.18189      2.219574       14.084459      226.15838      402.85903      380            404.25515    
      6000   236.18618      230.89412      2.0471589      16.745507      244.22752      404.01175      376            405.81297    
      7000   253.30621      248.16845      1.9874696      19.643662      263.72309      404.72048      372            406.71099    
      8000   271.27798      266.14498      1.985629       22.116014      284.16063      405.33603      368            407.45241    
      9000   293.07945      288.24786      1.8690322      24.96738       305.43606      406.31649      364            408.50799    
     10000   313.06882      307.94914      1.9804788      28.169106      328.13807      407.10148      360            409.33       
Loop time of 6.92799 on 64 procs for 10000 steps with 20000 atoms

Performance: 124.712 ns/day, 0.192 hours/ns, 1443.420 timesteps/s, 28.868 Matom-step/s
99.3% CPU use with 64 MPI tasks x 1 OpenMP threads

MPI task timing breakdown:
Section |  min time  |  avg time  |  max time  |%varavg| %total
---------------------------------------------------------------
Pair    | 0.007531   | 0.011022   | 0.020848   |   2.9 |  0.16
Bond    | 1.0804     | 1.3232     | 1.7511     |  11.3 | 19.10
Neigh   | 0.0083666  | 0.011787   | 0.01599    |   1.9 |  0.17
Comm    | 2.1475     | 2.5692     | 2.9449     |  12.3 | 37.08
Output  | 1.7638     | 2.1442     | 2.5424     |  16.0 | 30.95
Modify  | 0.12593    | 0.40171    | 0.76192    |  22.6 |  5.80
Other   |            | 0.4669     |            |       |  6.74

Nlocal:          312.5 ave         398 max         246 min
Histogram: 2 9 6 11 15 6 8 2 3 2
Nghost:         414.25 ave         666 max         244 min
Histogram: 10 8 4 16 8 2 5 5 4 2
Neighs:        93.7031 ave         487 max           0 min
Histogram: 32 8 8 2 6 5 1 0 1 1

Total # of neighbors = 5997
Ave neighs/atom = 0.29985
Ave special neighs/atom = 36.5259
Neighbor list builds = 26
Dangerous builds = 0
Generated 0 of 0 mixed pair_coeff terms from geometric mixing rule
Setting up Verlet run ...
  Unit style    : metal
  Current step  : 10000
  Time step     : 0.001
Per MPI rank memory allocation (min/avg/max) = 21.23 | 21.24 | 21.26 Mbytes
   Step         TotEng         PotEng          Temp          E_bond        E_dihed           Lx             Ly             Lz      
     10000   313.13156      308.01187      1.9804788      28.230929      328.13905      407.11193      360            409.33806    
     11000   292.5044       289.29045      1.2432732      21.406506      320.33425      406.99409      360            409.96257    
     12000   279.05092      276.24892      1.0839172      18.054669      312.29261      407.27302      360            410.36345    
     13000   269.31918      266.69289      1.0159425      16.588221      305.20106      407.71048      360            411.07039    
     14000   262.49666      259.8239       1.0339178      15.674288      299.28383      407.9586       360            411.32309    
     15000   256.1155       253.44518      1.0329756      15.233202      294.30136      408.47539      360            411.62316    
     16000   249.49862      247.0523       0.94632236     14.981359      290.17712      408.74257      360            411.60321    
     17000   242.54633      239.82541      1.05255        15.4065        286.2222       408.91565      360            412.26469    
     18000   237.67291      234.99009      1.0378126      13.909646      283.01328      409.23059      360            413.32352    
     19000   233.97673      231.39525      0.99860852     13.586572      279.86072      409.43005      360            413.80112    
     20000   230.12833      227.53581      1.0028789      13.249175      277.24025      409.71643      360            414.88924    
Loop time of 6.87312 on 64 procs for 10000 steps with 20000 atoms

Performance: 125.707 ns/day, 0.191 hours/ns, 1454.943 timesteps/s, 29.099 Matom-step/s
99.3% CPU use with 64 MPI tasks x 1 OpenMP threads

MPI task timing breakdown:
Section |  min time  |  avg time  |  max time  |%varavg| %total
---------------------------------------------------------------
Pair    | 0.0073001  | 0.013097   | 0.034273   |   5.6 |  0.19
Bond    | 1.0771     | 1.3252     | 1.7557     |  13.9 | 19.28
Neigh   | 0.0056345  | 0.0076441  | 0.0096471  |   1.3 |  0.11
Comm    | 2.2052     | 2.6201     | 3.028      |  12.6 | 38.12
Output  | 1.6941     | 2.0481     | 2.4165     |  15.3 | 29.80
Modify  | 0.10424    | 0.42504    | 0.86187    |  26.4 |  6.18
Other   |            | 0.4338     |            |       |  6.31

Nlocal:          312.5 ave         447 max         219 min
Histogram: 2 5 10 17 15 5 4 4 1 1
Nghost:        417.453 ave         682 max         224 min
Histogram: 5 12 4 13 9 5 3 6 5 2
Neighs:        116.875 ave         581 max           0 min
Histogram: 35 5 8 5 3 0 2 3 0 3

Total # of neighbors = 7480
Ave neighs/atom = 0.374
Ave special neighs/atom = 36.5259
Neighbor list builds = 14
Dangerous builds = 0
Total wall time: 0:00:15
LAMMPS (3 Nov 2022)
OMP_NUM_THREADS environment is not set. Defaulting to 1 thread. (src/comm.cpp:98)
  using 1 OpenMP thread(s) per MPI task
Reading data file ...
  triclinic box = (0 0 0) to (400 400 400) with tilt (0 0 0)
  4 by 4 by 4 MPI processor grid
  reading atoms ...
  20000 atoms
  scanning bonds ...
  8 = max bonds/atom
  scanning dihedrals ...
  8 = max dihedrals/atom
  reading bonds ...
  58858 bonds
  reading dihedrals ...
  57443 dihedrals
Finding 1-2 1-3 1-4 neighbors ...
  special bond factors lj:    0        0        0       
  special bond factors coul:  0        0        0       
     9 = max # of 1-2 neighbors
    50 = max # of 1-3 neighbors
   315 = max # of 1-4 neighbors
    64 = max # of special neighbors
  special bonds CPU = 0.008 seconds
  read_data CPU = 0.658 seconds
17736 atoms in group 1
Generated 0 of 0 mixed pair_coeff terms from geometric mixing rule
Neighbor list info ...
  update: every = 1 steps, delay = 0 steps, check = yes
  max neighbors/atom: 2000, page size: 100000
  master list distance cutoff = 18
  ghost atom cutoff = 18
  binsize = 9, bins = 45 45 45
  1 neighbor lists, perpetual/occasional/extra = 1 0 0
  (1) pair lj/cut, perpetual
      attributes: half, newton on
      pair build: half/bin/newton/tri
      stencil: half/bin/3d/tri
      bin: standard
Setting up Verlet run ...
  Unit style    : metal
  Current step  : 0
  Time step     : 0.001
Per MPI rank memory allocation (min/avg/max) = 21.22 | 21.23 | 21.26 Mbytes
   Step         TotEng         PotEng          Temp          E_bond        E_dihed           Lx             Ly             Lz      
         0   173.93049      173.93049      0              5.375e-12      173.93309      398.44413      397.48794      400          
      1000   186.39771      179.16881      2.7964005      5.1573509      174.02136      399.06656      398.71573      396          
      2000   190.69529      184.39151      2.4385304      6.602844       180.01842      399.25545      401.67051      392          
      3000   193.36729      187.60016      2.2309335      8.2299621      188.43668      399.72143      402.69458      388          
      4000   202.89296      197.83678      1.9559102      9.4321395      200.50869      400.08874      403.53381      384          
      5000   212.60686      207.30086      2.052553       11.268804      213.07962      400.61743      404.20917      380          
      6000   220.32952      215.26611      1.9587079      12.880382      226.44095      401.49723      404.97645      376          
      7000   231.10761      225.71312      2.0867833      15.305697      241.55049      402.21104      405.60403      372          
      8000   243.80012      238.98275      1.8635352      16.809001      257.77099      402.66028      406.00892      368          
      9000   258.42725      254.25606      1.613568       18.530908      275.85051      403.73971      406.4855       364          
     10000   276.00705      271.92419      1.5793984      20.749948      294.48512      404.64153      406.75203      360          
     11000   294.38555      290.0292       1.6851931      24.00995       313.61305      405.48361      406.93024      356          
     12000   307.97213      303.42456      1.7591628      27.181168      334.11585      406.73565      407.02173      352          
     13000   326.75703      322.35099      1.7044164      28.394155      354.76735      407.84818      407.19926      348          
     14000   346.20899      342.04934      1.6091028      31.18208       375.66941      409.18659      407.64073      344          
     15000   368.57232      364.8296       1.4478173      33.053788      397.70682      410.13322      407.84919      340          
     16000   390.20431      386.31901      1.5029731      35.205427      420.25669      411.24114      407.99574      336          
     17000   409.8857       405.72568      1.6092461      37.187977      442.9643       411.93575      408.09149      332          
     18000   425.45917      421.29577      1.6105536      38.980091      467.29851      412.73407      408.1795       328          
     19000   444.68343      440.07728      1.7818231      40.659648      490.27717      413.37699      408.39679      324          
     20000   459.7678       455.43242      1.6770807      42.567525      513.77429      414.24506      408.66963      320          
     21000   478.03217      474.12866      1.5100214      44.198412      537.19519      415.01333      408.94665      316          
     22000   497.91544      493.74653      1.6126821      46.573532      561.02065      415.84484      409.27462      312          
     23000   519.30513      515.41238      1.5058556      49.324782      584.88693      416.52183      409.51973      308          
     24000   540.15841      535.94084      1.6315102      50.429883      609.12403      417.03205      409.67121      304          
     25000   562.31253      558.09436      1.631742       51.068911      634.0418       417.81273      409.80596      300          
     26000   583.31783      578.82777      1.7369202      52.055144      659.52566      418.37721      409.96631      296          
     27000   603.9808       600.18855      1.466979       53.21262       682.61203      418.8669       410.12894      292          
     28000   627.59369      623.87666      1.4378815      55.989881      706.51062      419.53655      410.24039      288          
     29000   651.30653      647.53915      1.4573597      59.019945      731.04618      420.21611      410.36718      284          
     30000   675.75849      671.80606      1.5289437      61.275933      755.85568      420.67464      410.32037      280          
     31000   702.0162       698.31665      1.4311194      62.929262      780.85365      421.50527      410.50305      276          
     32000   726.79798      722.88101      1.5152257      65.937182      805.85851      421.99968      410.62998      272          
     33000   750.37053      746.02855      1.6796344      68.731951      830.99908      422.67894      410.82611      268          
     34000   770.84306      766.63386      1.6282691      72.878086      856.45243      423.05757      410.95711      264          
     35000   793.51946      789.76595      1.4519917      75.397134      881.97372      423.30684      411.03739      260          
     36000   818.3453       814.39977      1.5262739      78.543584      906.73635      423.76409      411.10759      256          
     37000   837.2133       833.05825      1.6073266      79.51478       930.57816      424.16729      411.12542      252          
     38000   861.09698      856.7743       1.6721697      83.195046      954.58677      424.41075      411.0918       248          
     39000   886.06852      882.19089      1.5000049      87.346368      978.81272      424.66385      411.02279      244          
     40000   914.60089      909.83147      1.8449838      94.760472      1003.6683      424.78374      410.82965      240          
     41000   939.25141      935.1882       1.5717988      103.06906      1028.4882      425.00609      410.60656      236          
     42000   965.25799      960.5506       1.8209906      107.41094      1054.8439      425.17652      410.41496      232          
     43000   988.50997      983.97614      1.7538503      110.75826      1081.0428      425.34968      410.12662      228          
     44000   1010.1503      1005.3848      1.8434545      117.61738      1108.009       425.46032      410.13899      224          
     45000   1035.0036      1029.1637      2.2590928      125.10736      1133.9304      425.67768      409.91943      220          
     46000   1058.551       1053.9333      1.7862878      131.73334      1160.7282      425.69502      409.66592      216          
     47000   1088.9367      1084.3225      1.7849372      145.3486       1188.5007      425.92611      409.35324      212          
     48000   1119.0408      1114.465       1.7701154      157.79698      1215.6216      426.14681      409.14736      208          
     49000   1148.4938      1143.4241      1.9611536      173.02353      1243.3375      426.19589      408.92115      204          
     50000   1179.0598      1174.3845      1.8085844      188.77224      1272.6201      426.17106      408.60473      200          
     51000   1210.5679      1205.5972      1.9228217      199.89994      1302.6927      426.12805      408.17007      196          
     52000   1251.5342      1246.5279      1.9366173      218.20704      1331.8708      426.35586      408.09186      192          
     53000   1291.3047      1286.1379      1.9987185      238.48833      1362.0423      426.4721       407.93905      188          
     54000   1328.8363      1322.7489      2.3548287      260.89161      1393.0497      426.42181      407.71479      184          
     55000   1357.0077      1350.852       2.3812501      275.46232      1423.9003      426.40754      407.06761      180          
     56000   1387.5136      1379.9137      2.9399293      286.33428      1455.3607      426.64414      406.69922      176          
     57000   1404.8044      1398.8482      2.3040688      295.18917      1484.7116      427.07395      406.49769      172          
     58000   1435.0582      1428.7833      2.4273623      316.29564      1516.034       427.4131       406.21588      168          
     59000   1474.1591      1468.2442      2.2881082      335.1659       1548.7059      427.70799      405.91435      164          
     60000   1512.1681      1505.6551      2.5194746      358.55966      1584.824       428.03875      405.32647      160          
     61000   1552.1451      1545.2445      2.6693984      381.74595      1620.8193      428.49568      404.87074      156          
     62000   1589.0481      1578.4624      4.0949572      396.80115      1658.227       428.87456      404.37988      152          
     63000   1615.0279      1607.8575      2.7738042      416.68316      1693.4933      429.04956      403.96744      148          
     64000   1649.3521      1641.9953      2.8458828      438.92609      1726.5352      429.0696       403.42251      144          
     65000   1699.3611      1691.732       2.9512264      471.73713      1763.8623      428.92378      403.0564       140          
     66000   1750.0836      1742.4995      2.9338045      509.41179      1800.7197      428.75749      402.72629      136          
     67000   1782.7678      1774.5232      3.1893067      521.22932      1838.7771      428.60075      402.31867      132          
     68000   1817.3545      1808.365       3.4774384      550.85366      1877.6535      428.3997       402.05912      128          
     69000   1848.5606      1839.7984      3.3895521      578.09053      1915.9647      428.17583      402.01768      124          
     70000   1892.5852      1883.7412      3.4211825      609.05708      1956.6467      427.72659      401.87423      120          
     71000   1935.2992      1926.8504      3.2683136      647.56542      1997.1196      427.49183      401.75651      116          
     72000   1993.3416      1983.8413      3.6750457      697.43144      2037.6073      426.75377      401.58409      112          
     73000   2044.3823      2035.2288      3.540943       744.74494      2079.1547      426.41731      401.30083      108          
     74000   2074.0528      2064.0362      3.8747658      783.23257      2118.0262      426.32457      401.05737      104          
     75000   2129.4231      2119.1487      3.9745128      853.26739      2160.0409      425.76651      400.62075      100          
Loop time of 63.5727 on 64 procs for 75000 steps with 20000 atoms

Performance: 101.931 ns/day, 0.235 hours/ns, 1179.752 timesteps/s, 23.595 Matom-step/s
99.3% CPU use with 64 MPI tasks x 1 OpenMP threads

MPI task timing breakdown:
Section |  min time  |  avg time  |  max time  |%varavg| %total
---------------------------------------------------------------
Pair    | 0.071957   | 0.31587    | 0.82753    |  31.8 |  0.50
Bond    | 6.9484     | 10.141     | 14.038     |  52.2 | 15.95
Neigh   | 0.20475    | 0.2378     | 0.27783    |   3.4 |  0.37
Comm    | 24.082     | 28.636     | 32.177     |  39.4 | 45.04
Output  | 14.091     | 16.837     | 19.353     |  37.6 | 26.48
Modify  | 1.309      | 4.2892     | 8.7544     |  95.3 |  6.75
Other   |            | 3.115      |            |       |  4.90

Nlocal:          312.5 ave         591 max         176 min
Histogram: 8 11 16 9 7 6 5 0 0 2
Nghost:        963.938 ave        1622 max         535 min
Histogram: 8 6 13 9 7 9 3 4 2 3
Neighs:         3458.3 ave       10603 max         327 min
Histogram: 6 16 15 10 8 2 3 2 0 2

Total # of neighbors = 221331
Ave neighs/atom = 11.06655
Ave special neighs/atom = 36.5259
Neighbor list builds = 259
Dangerous builds = 0
Total wall time: 0:01:04
LAMMPS (3 Nov 2022)
OMP_NUM_THREADS environment is not set. Defaulting to 1 thread. (src/comm.cpp:98)
  using 1 OpenMP thread(s) per MPI task
Reading data file ...
  triclinic box = (0 0 0) to (400 400 400) with tilt (0 0 0)
  4 by 4 by 4 MPI processor grid
  reading atoms ...
  20000 atoms
  scanning bonds ...
  8 = max bonds/atom
  scanning dihedrals ...
  8 = max dihedrals/atom
  reading bonds ...
  58858 bonds
  reading dihedrals ...
  57443 dihedrals
Finding 1-2 1-3 1-4 neighbors ...
  special bond factors lj:    0        0        0       
  special bond factors coul:  0        0        0       
     9 = max # of 1-2 neighbors
    50 = max # of 1-3 neighbors
   315 = max # of 1-4 neighbors
    64 = max # of special neighbors
  special bonds CPU = 0.008 seconds
  read_data CPU = 0.565 seconds
17736 atoms in group 1
Generated 0 of 0 mixed pair_coeff terms from geometric mixing rule
Neighbor list info ...
  update: every = 1 steps, delay = 0 steps, check = yes
  max neighbors/atom: 2000, page size: 100000
  master list distance cutoff = 18
  ghost atom cutoff = 18
  binsize = 9, bins = 45 45 45
  1 neighbor lists, perpetual/occasional/extra = 1 0 0
  (1) pair lj/cut, perpetual
      attributes: half, newton on
      pair build: half/bin/newton/tri
      stencil: half/bin/3d/tri
      bin: standard
Setting up Verlet run ...
  Unit style    : metal
  Current step  : 0
  Time step     : 0.001
Per MPI rank memory allocation (min/avg/max) = 21.23 | 21.23 | 21.25 Mbytes
   Step         TotEng         PotEng          Temp          E_bond        E_dihed           Lx             Ly             Lz      
         0   173.93229      173.93229      0              4.8949669e-22  173.93309      400            397.48794      398.77415    
      1000   179.59609      175.09928      1.7395261      3.3364369      171.76477      396            400.5852       400.58272    
      2000   181.13688      177.33851      1.4693448      3.8326976      173.51624      392            403.06154      402.79532    
      3000   183.11588      179.07923      1.5615225      5.0174425      176.18429      388            403.75764      404.41481    
      4000   185.27375      180.88527      1.6976257      6.0647971      179.67071      384            404.18358      406.34865    
      5000   186.26673      182.65328      1.3978133      6.6133779      184.0534       380            404.72518      408.34932    
      6000   189.6995       186.3101       1.3111436      6.9949936      188.36124      376            405.3038       410.23654    
      7000   192.77953      188.88951      1.5048015      8.1281688      192.77459      372            405.79004      412.04413    
      8000   193.37515      189.60281      1.4592768      9.4812248      197.81964      368            406.40712      414.27466    
      9000   197.43055      194.18684      1.2547855      9.3517714      202.82035      364            406.77152      415.7176     
     10000   200.88525      197.5348       1.2960735      10.082639      208.16178      360            407.11286      417.24767    
Loop time of 7.83511 on 64 procs for 10000 steps with 20000 atoms

Performance: 110.273 ns/day, 0.218 hours/ns, 1276.307 timesteps/s, 25.526 Matom-step/s
99.2% CPU use with 64 MPI tasks x 1 OpenMP threads

MPI task timing breakdown:
Section |  min time  |  avg time  |  max time  |%varavg| %total
---------------------------------------------------------------
Pair    | 0.0069833  | 0.010037   | 0.01572    |   1.8 |  0.13
Bond    | 0.99218    | 1.3357     | 1.6993     |  13.1 | 17.05
Neigh   | 0.0072285  | 0.0097289  | 0.012293   |   1.3 |  0.12
Comm    | 2.0288     | 2.5537     | 3.0145     |  15.2 | 32.59
Output  | 1.7961     | 2.9358     | 3.397      |  25.1 | 37.47
Modify  | 0.19137    | 0.45741    | 0.9237     |  28.1 |  5.84
Other   |            | 0.5327     |            |       |  6.80

Nlocal:          312.5 ave         389 max         237 min
Histogram: 2 6 7 2 8 20 8 6 3 2
Nghost:        402.406 ave         633 max         233 min
Histogram: 6 8 6 13 6 11 5 2 5 2
Neighs:         56.125 ave         286 max           0 min
Histogram: 34 9 3 6 4 2 3 1 1 1

Total # of neighbors = 3592
Ave neighs/atom = 0.1796
Ave special neighs/atom = 36.5259
Neighbor list builds = 23
Dangerous builds = 0
Generated 0 of 0 mixed pair_coeff terms from geometric mixing rule
Setting up Verlet run ...
  Unit style    : metal
  Current step  : 10000
  Time step     : 0.001
Per MPI rank memory allocation (min/avg/max) = 21.24 | 21.24 | 21.26 Mbytes
   Step         TotEng         PotEng          Temp          E_bond        E_dihed           Lx             Ly             Lz      
     10000   200.90125      197.55081      1.2960735      10.099064      208.16138      360            407.2366       417.74144    
     11000   193.54566      190.43298      1.2040968      9.5314284      204.71513      360            407.08922      418.11915    
     12000   188.49584      185.62981      1.1086849      9.0368441      201.50763      360            406.91786      418.41766    
     13000   182.58485      179.96373      1.0139458      8.4612134      199.39444      360            406.59487      418.22774    
     14000   177.99307      175.4147       0.99740668     8.0087105      197.30002      360            406.4896       418.17979    
     15000   175.08635      172.50331      0.99921585     7.2754348      195.12474      360            406.34067      418.19323    
     16000   172.60438      170.0107       1.0033289      6.8498589      193.08202      360            405.94453      418.1741     
     17000   169.85337      167.22064      1.0184364      6.6618018      191.50465      360            405.60133      418.1359     
     18000   166.46915      163.94073      0.97808298     6.7381025      190.27086      360            405.60133      418.1359     
     19000   163.83584      161.29887      0.98139152     6.6907158      189.46276      360            405.26182      417.93793    
     20000   160.69925      158.24249      0.9503628      6.653184       188.48529      360            405.77119      417.68667    
Loop time of 6.55553 on 64 procs for 10000 steps with 20000 atoms

Performance: 131.797 ns/day, 0.182 hours/ns, 1525.429 timesteps/s, 30.509 Matom-step/s
99.3% CPU use with 64 MPI tasks x 1 OpenMP threads

MPI task timing breakdown:
Section |  min time  |  avg time  |  max time  |%varavg| %total
---------------------------------------------------------------
Pair    | 0.0064578  | 0.011455   | 0.020384   |   3.5 |  0.17
Bond    | 0.94365    | 1.3364     | 1.7018     |  15.4 | 20.39
Neigh   | 0.0039504  | 0.0052799  | 0.0065805  |   0.8 |  0.08
Comm    | 1.7838     | 2.399      | 2.8859     |  15.6 | 36.60
Output  | 1.6389     | 1.9899     | 2.3193     |  14.1 | 30.35
Modify  | 0.14422    | 0.41843    | 0.76922    |  27.6 |  6.38
Other   |            | 0.3951     |            |       |  6.03

Nlocal:          312.5 ave         422 max         225 min
Histogram: 4 6 8 5 15 14 6 2 2 2
Nghost:        406.609 ave         616 max         241 min
Histogram: 5 8 5 11 8 10 7 3 5 2
[...]
     78000   15566.709      15564.288      0.93694        1511.0833      14759.007      160            399.92192      404.46385    
     79000   15565.864      15563.172      1.041539       1511.928       14757.483      160            400.02438      405.66915    
     80000   15564.227      15561.564      1.0301389      1511.1939      14757.548      160            400.43793      407.12495    
     81000   15563.602      15561.197      0.93045192     1513.3403      14755.832      160            401.15519      408.43813    
     82000   15562.139      15559.503      1.0198723      1511.9462      14757.424      160            400.1805       410.19018    
     83000   15561.832      15559.256      0.99667113     1512.4306      14756.656      160            400.28523      411.73089    
     84000   15561.815      15559.27       0.9846659      1512.9585      14756.128      160            400.71246      412.3261     
     85000   15561.818      15559.231      1.0005437      1512.1016      14756.959      160            400.59146      413.6149     
     86000   15561.862      15559.25       1.0102363      1512.0954      14757.092      160            400.0952       414.14398    
     87000   15561.965      15559.361      1.0073142      1513.321       14755.957      160            400.17573      414.03192    
     88000   15561.958      15559.298      1.0290858      1512.6142      14756.555      160            400.5613       413.74071    
     89000   15561.04       15558.599      0.94441096     1510.7518      14757.779      160            400.44631      413.34886    
     90000   15560.813      15558.333      0.95924522     1509.8777      14759.223      160            399.87351      412.75557    
     91000   15561.004      15558.416      1.0012143      1509.9761      14759.265      160            399.87351      412.75557    
     92000   15560.807      15558.29       0.97367781     1509.5123      14759.659      160            399.87351      412.75557    
     93000   15561.065      15558.404      1.0293925      1509.7834      14759.422      160            399.87351      412.75557    
     94000   15560.904      15558.336      0.99320089     1510.3717      14758.819      160            399.87351      412.75557    
     95000   15560.034      15557.449      1.0001904      1509.6533      14758.637      160            399.92095      413.62549    
     96000   15558.759      15555.915      1.1004616      1509.7767      14757.102      160            399.65462      414.10775    
     97000   15553.212      15550.809      0.92957934     1503.8146      14759.985      160            399.65049      414.18492    
     98000   15551.745      15549.129      1.0118149      1504.0583      14760.617      160            399.7823       413.92291    
     99000   15538.102      15536.207      0.73336475     1499.5082      14756.023      160            399.84689      413.61336    
    100000   15538.316      15534.924      1.3124603      1503.4012      14750.308      160            399.78693      413.781      
    101000   15537.059      15534.605      0.94931419     1503.3642      14750.635      160            399.76129      413.93828    
    102000   15532.671      15530.667      0.77535094     1497.1111      14752.959      160            399.75366      413.95888    
    103000   15521.216      15519.143      0.80176515     1489.1584      14748.73       160            399.77682      413.98393    
    104000   15519.899      15517.179      1.0525156      1488.9021      14747.379      160            399.76133      414.00307    
    105000   15518.136      15515.821      0.89546368     1489.1788      14746.71       160            399.69392      413.99579    
    106000   15516.701      15514.468      0.86371656     1486.0874      14748.456      160            399.63367      413.94746    
    107000   15517.114      15514.282      1.0956003      1485.6268      14748.718      160            399.69832      413.77766    
    108000   15512.107      15508.893      1.2431671      1478.9087      14749.941      160            399.72284      413.77797    
    109000   15509.853      15507.388      0.95360723     1473.9679      14754.18       160            399.6742       413.9346     
    110000   15509.883      15507.186      1.0431497      1474.2207      14753.866      160            399.6971       413.87664    
    111000   15508.985      15506.512      0.95685547     1477.7969      14750.504      160            399.75333      413.85619    
    112000   15509.067      15506.282      1.077376       1476.3486      14751.632      160            399.75333      413.85619    
    113000   15508.381      15505.731      1.025061       1476.3499      14751.16       160            399.75333      413.85619    
    114000   15508.524      15505.899      1.0153204      1478.7941      14748.876      160            399.75333      413.85619    
    115000   15508.416      15505.885      0.97902533     1476.3841      14751.246      160            399.75333      413.85619    
    116000   15508.653      15505.98       1.0343533      1475.9351      14751.9        160            399.75333      413.85619    
    117000   15508.37       15505.809      0.99102622     1477.4584      14750.103      160            399.75333      413.85619    
    118000   15508.515      15505.91       1.0076921      1476.6973      14750.969      160            399.75333      413.85619    
    119000   15507.946      15505.358      1.0011922      1476.5118      14751.757      160            399.75333      413.85619    
    120000   15507.985      15505.345      1.0213399      1476.9598      14751.187      160            399.75333      413.85619    
Loop time of 61.7108 on 64 procs for 60000 steps with 19998 atoms

Performance: 84.005 ns/day, 0.286 hours/ns, 972.277 timesteps/s, 19.444 Matom-step/s
99.3% CPU use with 64 MPI tasks x 1 OpenMP threads

MPI task timing breakdown:
Section |  min time  |  avg time  |  max time  |%varavg| %total
---------------------------------------------------------------
Pair    | 0.070126   | 0.55428    | 2.135      |  60.6 |  0.90
Bond    | 3.3685     | 8.4703     | 16.803     |  95.6 | 13.73
Neigh   | 0.11558    | 0.13266    | 0.15352    |   2.3 |  0.21
Comm    | 19.818     | 27.071     | 31.564     |  48.5 | 43.87
Output  | 15.13      | 17.921     | 20.598     |  38.6 | 29.04
Modify  | 1.6704     | 4.339      | 9.8521     |  83.8 |  7.03
Other   |            | 3.223      |            |       |  5.22

Nlocal:        312.469 ave         599 max         130 min
Histogram: 4 7 14 13 7 9 5 2 2 1
Nghost:        681.328 ave        1165 max         329 min
Histogram: 7 7 9 12 9 5 5 1 5 4
Neighs:        1885.61 ave        7185 max         222 min
Histogram: 21 12 11 7 7 0 2 2 1 1

Total # of neighbors = 120679
Ave neighs/atom = 6.0345535
Ave special neighs/atom = 38.816782
Neighbor list builds = 116
Dangerous builds = 0
Total wall time: 0:01:53
LAMMPS (3 Nov 2022)
OMP_NUM_THREADS environment is not set. Defaulting to 1 thread. (src/comm.cpp:98)
  using 1 OpenMP thread(s) per MPI task
Reading data file ...
  triclinic box = (0 0 0) to (400 400 400) with tilt (0 0 0)
  4 by 4 by 4 MPI processor grid
  reading atoms ...
  19998 atoms
  scanning bonds ...
  9 = max bonds/atom
  scanning dihedrals ...
  13 = max dihedrals/atom
  reading bonds ...
  58992 bonds
  reading dihedrals ...
  56874 dihedrals
Finding 1-2 1-3 1-4 neighbors ...
  special bond factors lj:    0        0        0       
  special bond factors coul:  0        0        0       
    11 = max # of 1-2 neighbors
    60 = max # of 1-3 neighbors
   383 = max # of 1-4 neighbors
    69 = max # of special neighbors
  special bonds CPU = 0.008 seconds
  read_data CPU = 0.640 seconds
17455 atoms in group 1
Generated 0 of 0 mixed pair_coeff terms from geometric mixing rule
Neighbor list info ...
  update: every = 1 steps, delay = 0 steps, check = yes
  max neighbors/atom: 2000, page size: 100000
  master list distance cutoff = 18
  ghost atom cutoff = 18
  binsize = 9, bins = 45 45 45
  1 neighbor lists, perpetual/occasional/extra = 1 0 0
  (1) pair lj/cut, perpetual
      attributes: half, newton on
      pair build: half/bin/newton/tri
      stencil: half/bin/3d/tri
      bin: standard
Setting up Verlet run ...
  Unit style    : metal
  Current step  : 0
  Time step     : 0.001
Per MPI rank memory allocation (min/avg/max) = 23.23 | 23.24 | 23.24 Mbytes
   Step         TotEng         PotEng          Temp          E_bond        E_dihed           Lx             Ly             Lz      
         0   2780.0908      2780.0908      0              4.7576415e-22  2780.0927      400            396.90896      398.23317    
      1000   2763.5918      2752.0318      4.4722783      28.743218      2723.3005      396            398.58081      406.7338     
      2000   2778.6589      2767.1696      4.44489        39.969947      2731.2614      392            399.24709      408.46641    
      3000   2793.6551      2781.6046      4.6620519      53.987088      2746.8557      388            400.33175      410.0137     
      4000   2836.1205      2825.6004      4.0699572      72.400969      2778.1985      384            400.97085      410.78186    
      5000   2893.9304      2882.9327      4.2547323      93.948717      2830.1083      380            402.47755      411.7729     
      6000   2968.9415      2959.2628      3.7444573      117.35268      2900.916       376            404.21998      412.68713    
      7000   3083.1061      3074.6041      3.289224       145.31792      3004.0374      372            405.43683      413.62573    
      8000   3229.1902      3220.9895      3.1726508      174.24243      3133.321       368            406.32271      414.40631    
      9000   3387.2734      3379.9633      2.8281154      197.66618      3281.713       364            407.03723      415.42522    
     10000   3560.2647      3552.9969      2.8117235      223.0717       3434.514       360            407.76189      416.05563    
     11000   3747.2088      3740.6923      2.5210649      247.98666      3604.1086      356            408.23308      416.36306    
     12000   3941.9672      3935.4472      2.5224374      272.22159      3784.2642      352            409.3495       416.49425    
     13000   4144.3314      4138.2896      2.3374346      296.11231      3969.9452      348            409.99062      416.59601    
     14000   4358.2782      4352.0968      2.3914321      323.9109       4163.0211      344            410.82039      416.56915    
     15000   4575.4711      4569.2958      2.3890662      349.80559      4359.5946      340            411.33905      416.47544    
     16000   4799.4806      4793.5992      2.2754002      376.27587      4563.774       336            411.63552      416.31604    
     17000   5003.2848      4997.1383      2.3779422      399.11068      4750.5004      332            411.8048       415.94561    
     18000   5222.1721      5216.0338      2.3747372      418.31002      4955.2043      328            411.81411      415.39559    
     19000   5454.9774      5448.4931      2.5085911      444.03073      5165.4641      324            411.57754      414.73209    
     20000   5690.2329      5684.4681      2.2302597      469.8626       5378.0188      320            411.01735      414.55616    
     21000   5937.6397      5931.3754      2.423468       503.22469      5597.957       316            410.74813      414.82548    
     22000   6190.2844      6184.212       2.349226       536.2607       5826.4952      312            410.36005      415.11208    
     23000   6432.3483      6425.177       2.7743918      563.93633      6042.3549      308            409.72052      415.7951     
     24000   6646.9048      6638.9143      3.0913073      572.8741       6253.7376      304            409.34163      416.26396    
     25000   6872.714       6865.941       2.6203119      599.06601      6459.6739      300            409.23145      416.86577    
     26000   7118.463       7112.3184      2.37718        626.26521      6687.0291      296            409.21622      417.66994    
     27000   7360.9468      7354.1542      2.6278515      657.65443      6905.7046      292            409.10519      418.34767    
     28000   7609.121       7602.5383      2.546658       683.89758      7135.032       288            408.86864      418.84653    
     29000   7852.1942      7844.7627      2.8750397      708.76118      7359.9046      284            408.94826      419.21346    
     30000   8097.3749      8089.9108      2.8876595      726.67952      7586.8818      280            408.91428      419.67025    
     31000   8352.8146      8345.6781      2.7609507      769.80046      7809.516       276            409.19165      420.19124    
     32000   8611.8437      8604.7946      2.7271174      810.3772       8037.5818      272            409.36852      420.82921    
     33000   8872.2155      8865.2519      2.6940229      842.51789      8268.3591      268            409.55264      421.19991    
     34000   9123.9065      9116.6167      2.8202385      869.89638      8498.0738      264            409.49646      421.45951    
     35000   9410.6113      9403.2581      2.8447397      919.81495      8744.3596      260            409.48682      421.53423    
     36000   9680.4368      9673.0269      2.866689       962.66034      8978.462       256            409.67693      421.57618    
     37000   9927.9624      9921.3827      2.5455293      991.98803      9205.7636      252            409.7038       421.4566     
     38000   10215.704      10208.396      2.8273429      1024.7691      9467.1642      248            409.76566      421.24513    
     39000   10516.346      10508.874      2.8907327      1077.9295      9721.6109      244            409.90557      421.05234    
     40000   10795.728      10787.513      3.1784859      1116.5165      9967.9682      240            410.05852      420.69953    
     41000   11039.308      11028.504      4.1797539      1141.7973      10188.802      236            410.41875      420.6435     
     42000   11253.486      11244.086      3.6364627      1143.6821      10403.846      232            410.67618      420.45286    
     43000   11528.412      11520.124      3.206303       1205.0754      10633.393      228            410.72449      420.00575    
     44000   11793.376      11785.554      3.0263817      1254.2533      10857.89       224            410.52403      419.59261    
     45000   12056.994      12047.421      3.7036871      1300.7927      11078.752      220            410.07156      418.7511     
     46000   12348.713      12340.31       3.2509546      1371.0607      11312.9        216            409.55033      417.95741    
     47000   12651.463      12643.428      3.1087427      1440.546       11555.765      212            408.84781      417.13157    
     48000   12920.005      12910.102      3.8312367      1486.3095      11780.821      208            408.17015      416.24507    
     49000   13184.723      13175.403      3.6056807      1531.9064      12016.295      204            407.74848      415.6013     
     50000   13502.93       13494.014      3.449441       1624.1219      12259.591      200            407.09576      414.73499    
     51000   13757.916      13745.345      4.8634004      1663.2376      12478.907      196            406.57881      413.90532    
     52000   13988.359      13977.811      4.0805551      1714.1097      12686.563      192            405.75684      412.87955    
     53000   14241.783      14230.916      4.2042551      1774.4376      12899.684      188            406.04094      412.2641     
     54000   14542.506      14532.679      3.8018398      1861.1972      13132.935      184            406.48771      411.69155    
     55000   14874.295      14864.131      3.9319817      1946.5144      13386.949      180            406.61037      410.6438     
     56000   15203.956      15193.198      4.1623644      2026.8565      13641.067      176            406.92182      409.44831    
     57000   15521.791      15510.297      4.4467596      2112.6334      13896.564      172            406.61092      408.65276    
     58000   15853.635      15842.527      4.2976298      2223.6334      14131.688      168            406.37078      407.81784    
     59000   16160.606      16147.027      5.2534549      2293.4774      14375.923      164            405.9886       407.89335    
     60000   16440.615      16429.066      4.4681094      2356.0749      14613.244      160            405.21419      407.28937    
     61000   16804.539      16793.329      4.3370887      2496.2444      14862.932      156            404.25089      407.07667    
     62000   17117.906      17106.545      4.3953151      2579.9898      15115.144      152            403.95714      406.70161    
     63000   17442.312      17429.622      4.9095381      2688.4206      15360.59       148            402.99968      406.36579    
     64000   17743.172      17729.917      5.1280427      2744.3845      15626.551      144            402.2617       405.88274    
     65000   18100.272      18087.485      4.947201       2861.2791      15905.714      140            401.40438      405.1223     
     66000   18426.927      18412.919      5.4196331      2945.3128      16161.771      136            400.3296       404.15116    
     67000   18727.477      18714.331      5.0859027      3028.5354      16397.154      132            399.57962      403.68171    
     68000   19101.578      19085.983      6.0335509      3169.4746      16659.847      128            398.99102      403.06692    
     69000   19465.119      19450.681      5.5859312      3298.9758      16921.588      124            398.65128      402.6494     
     70000   19850.065      19834.833      5.8929471      3447.4706      17172.843      120            397.89637      402.21208    
     71000   20202.452      20188.132      5.5401979      3597.2654      17432.458      116            397.33356      401.74068    
     72000   20580.537      20566.504      5.4286938      3755.1663      17689.605      112            396.94901      400.8282     
     73000   20991.727      20975.478      6.286329       3930.6369      17948.647      108            396.63352      400.13228    
     74000   21264.106      21245.433      7.2242379      3964.1117      18207.389      104            396.41174      399.59721    
     75000   21580.69       21564.637      6.2105763      4063.9979      18473.886      100            396.3248       399.25255    
WARNING: Bond/angle/dihedral extent > half of periodic box length (src/domain.cpp:940)
Loop time of 58.8929 on 64 procs for 75000 steps with 19998 atoms

Performance: 110.030 ns/day, 0.218 hours/ns, 1273.499 timesteps/s, 25.467 Matom-step/s
99.3% CPU use with 64 MPI tasks x 1 OpenMP threads

MPI task timing breakdown:
Section |  min time  |  avg time  |  max time  |%varavg| %total
---------------------------------------------------------------
Pair    | 0.07509    | 0.40481    | 1.4439     |  48.1 |  0.69
Bond    | 5.8797     | 10.444     | 15.966     |  69.3 | 17.73
Neigh   | 0.34646    | 0.38722    | 0.44542    |   4.1 |  0.66
Comm    | 18.793     | 23.335     | 27.461     |  44.1 | 39.62
Output  | 14.19      | 16.762     | 19.322     |  36.2 | 28.46
Modify  | 1.3493     | 4.2823     | 8.9119     |  83.9 |  7.27
Other   |            | 3.278      |            |       |  5.57

Nlocal:        312.469 ave         594 max         150 min
Histogram: 7 10 13 9 6 11 2 1 3 2
Nghost:        974.266 ave        1567 max         450 min
Histogram: 4 5 8 13 8 10 2 2 6 6
Neighs:        4089.02 ave       12758 max         578 min
Histogram: 14 16 10 6 8 4 2 0 1 3

Total # of neighbors = 261697
Ave neighs/atom = 13.086159
Ave special neighs/atom = 38.816782
Neighbor list builds = 436
Dangerous builds = 0
Total wall time: 0:01:01
