LAMMPS (3 Nov 2022)
OMP_NUM_THREADS environment is not set. Defaulting to 1 thread. (src/comm.cpp:98)
  using 1 OpenMP thread(s) per MPI task
Reading data file ...
  triclinic box = (0 0 0) to (400 400 400) with tilt (0 0 0)
  4 by 4 by 4 MPI processor grid
  reading atoms ...
  20000 atoms
  scanning bonds ...
  8 = max bonds/atom
  scanning dihedrals ...
  8 = max dihedrals/atom
  reading bonds ...
  58858 bonds
  reading dihedrals ...
  57443 dihedrals
Finding 1-2 1-3 1-4 neighbors ...
  special bond factors lj:    0        0        0       
  special bond factors coul:  0        0        0       
     9 = max # of 1-2 neighbors
    50 = max # of 1-3 neighbors
   315 = max # of 1-4 neighbors
    64 = max # of special neighbors
  special bonds CPU = 0.009 seconds
  read_data CPU = 0.740 seconds
17736 atoms in group 1
Generated 0 of 0 mixed pair_coeff terms from geometric mixing rule
Neighbor list info ...
  update: every = 1 steps, delay = 0 steps, check = yes
  max neighbors/atom: 2000, page size: 100000
  master list distance cutoff = 18
  ghost atom cutoff = 18
  binsize = 9, bins = 45 45 45
  1 neighbor lists, perpetual/occasional/extra = 1 0 0
  (1) pair lj/cut, perpetual
      attributes: half, newton on
      pair build: half/bin/newton/tri
      stencil: half/bin/3d/tri
      bin: standard
Setting up Verlet run ...
  Unit style    : metal
  Current step  : 0
  Time step     : 0.001
Per MPI rank memory allocation (min/avg/max) = 21.22 | 21.23 | 21.26 Mbytes
   Step         TotEng         PotEng          Temp          E_bond        E_dihed           Lx             Ly             Lz      
         0   173.93049      173.93049      0              1.3309946e-22  173.93309      398.44413      397.48794      400          
      1000   186.39771      179.16881      2.7964005      5.1573509      174.02136      399.06656      398.71573      396          
Loop time of 2.90607 on 64 procs for 1000 steps with 20000 atoms

Performance: 29.731 ns/day, 0.807 hours/ns, 344.107 timesteps/s, 6.882 Matom-step/s
98.2% CPU use with 64 MPI tasks x 1 OpenMP threads

MPI task timing breakdown:
Section |  min time  |  avg time  |  max time  |%varavg| %total
---------------------------------------------------------------
Pair    | 0.00071523 | 0.00096494 | 0.0016302  |   0.0 |  0.03
Bond    | 0.1006     | 0.13261    | 0.17003    |   3.9 |  4.56
Neigh   | 0.00030731 | 0.00043648 | 0.00066071 |   0.0 |  0.02
Comm    | 0.22315    | 0.27567    | 0.31144    |   3.6 |  9.49
Output  | 0.30799    | 2.1738     | 2.4621     |  45.6 | 74.80
Modify  | 0.013154   | 0.027857   | 0.050765   |   5.4 |  0.96
Other   |            | 0.2948     |            |       | 10.14

Nlocal:          312.5 ave         370 max         244 min
Histogram: 3 7 2 3 8 9 13 11 7 1
Nghost:        384.891 ave         605 max         196 min
Histogram: 2 12 10 5 12 2 5 7 2 7
Neighs:        22.9688 ave         199 max           0 min
Histogram: 47 2 5 3 2 2 1 1 0 1

Total # of neighbors = 1470
Ave neighs/atom = 0.0735
Ave special neighs/atom = 36.5259
Neighbor list builds = 1
Dangerous builds = 0
System init for write_data ...
Generated 0 of 0 mixed pair_coeff terms from geometric mixing rule
Generated 0 of 0 mixed pair_coeff terms from geometric mixing rule
Setting up Verlet run ...
  Unit style    : metal
  Current step  : 1000
  Time step     : 0.001
Per MPI rank memory allocation (min/avg/max) = 21.23 | 21.24 | 21.26 Mbytes
   Step         TotEng         PotEng          Temp          E_bond        E_dihed           Lx             Ly             Lz      
      1000   186.44433      179.21542      2.7964005      5.2038302      174.0215       399.24937      399.90848      396          
      2000   190.39145      184.13928      2.4185659      6.5110837      179.84225      399.25209      401.678        392.04       
Loop time of 0.806084 on 64 procs for 1000 steps with 20000 atoms

Performance: 107.185 ns/day, 0.224 hours/ns, 1240.565 timesteps/s, 24.811 Matom-step/s
99.0% CPU use with 64 MPI tasks x 1 OpenMP threads

MPI task timing breakdown:
Section |  min time  |  avg time  |  max time  |%varavg| %total
---------------------------------------------------------------
Pair    | 0.0007326  | 0.00099048 | 0.001892   |   0.0 |  0.12
Bond    | 0.10018    | 0.13255    | 0.17045    |   3.9 | 16.44
Neigh   | 0.00083458 | 0.0010289  | 0.0014276  |   0.4 |  0.13
Comm    | 0.22277    | 0.28453    | 0.32661    |   3.8 | 35.30
Output  | 0.15784    | 0.26544    | 0.34653    |  14.9 | 32.93
Modify  | 0.01289    | 0.033949   | 0.058489   |   6.7 |  4.21
Other   |            | 0.0876     |            |       | 10.87

Nlocal:          312.5 ave         372 max         243 min
Histogram: 3 6 4 3 9 8 14 8 8 1
Nghost:        390.891 ave         614 max         191 min
Histogram: 1 10 13 5 10 5 5 6 2 7
Neighs:        32.9688 ave         239 max           0 min
Histogram: 44 5 3 3 3 2 1 1 1 1

Total # of neighbors = 2110
Ave neighs/atom = 0.1055
Ave special neighs/atom = 36.5259
Neighbor list builds = 2
Dangerous builds = 0
System init for write_data ...
Generated 0 of 0 mixed pair_coeff terms from geometric mixing rule
Generated 0 of 0 mixed pair_coeff terms from geometric mixing rule
Setting up Verlet run ...
  Unit style    : metal
  Current step  : 2000
  Time step     : 0.001
Per MPI rank memory allocation (min/avg/max) = 21.23 | 21.24 | 21.26 Mbytes
   Step         TotEng         PotEng          Temp          E_bond        E_dihed           Lx             Ly             Lz      
      2000   190.43636      184.18419      2.4185659      6.5558192      179.84243      399.27338      401.7482       392.04       
      3000   192.50209      186.86213      2.1817414      8.0829066      187.83066      399.57498      402.53325      388.1196     
Loop time of 0.73329 on 64 procs for 1000 steps with 20000 atoms

Performance: 117.825 ns/day, 0.204 hours/ns, 1363.718 timesteps/s, 27.274 Matom-step/s
99.3% CPU use with 64 MPI tasks x 1 OpenMP threads

MPI task timing breakdown:
Section |  min time  |  avg time  |  max time  |%varavg| %total
---------------------------------------------------------------
Pair    | 0.00072261 | 0.0010372  | 0.0019533  |   0.8 |  0.14
Bond    | 0.10039    | 0.13267    | 0.17065    |   3.9 | 18.09
Neigh   | 0.00056568 | 0.00090315 | 0.0012464  |   0.0 |  0.12
Comm    | 0.24931    | 0.30449    | 0.34499    |   3.9 | 41.52
Output  | 0.17507    | 0.21377    | 0.25156    |   4.8 | 29.15
Modify  | 0.015471   | 0.035936   | 0.074582   |   7.0 |  4.90
Other   |            | 0.04449    |            |       |  6.07

Nlocal:          312.5 ave         373 max         245 min
Histogram: 3 7 4 1 12 9 11 8 8 1
Nghost:        393.422 ave         617 max         194 min
Histogram: 1 10 13 6 9 5 5 5 4 6
Neighs:        38.7969 ave         228 max           0 min
Histogram: 38 7 6 2 2 4 1 2 0 2

Total # of neighbors = 2483
Ave neighs/atom = 0.12415
Ave special neighs/atom = 36.5259
Neighbor list builds = 2
Dangerous builds = 0
System init for write_data ...
Generated 0 of 0 mixed pair_coeff terms from geometric mixing rule
Generated 0 of 0 mixed pair_coeff terms from geometric mixing rule
Setting up Verlet run ...
  Unit style    : metal
  Current step  : 3000
  Time step     : 0.001
Per MPI rank memory allocation (min/avg/max) = 21.23 | 21.24 | 21.26 Mbytes
   Step         TotEng         PotEng          Temp          E_bond        E_dihed           Lx             Ly             Lz      
      3000   192.54731      186.90735      2.1817414      8.1278984      187.8309       399.74288      402.74526      388.1196     
      4000   201.17722      196.23333      1.9124788      9.1981232      199.13108      399.94795      403.22198      384.2384     
Loop time of 3.67663 on 64 procs for 1000 steps with 20000 atoms

Performance: 23.500 ns/day, 1.021 hours/ns, 271.989 timesteps/s, 5.440 Matom-step/s
98.2% CPU use with 64 MPI tasks x 1 OpenMP threads

MPI task timing breakdown:
Section |  min time  |  avg time  |  max time  |%varavg| %total
---------------------------------------------------------------
Pair    | 0.00077238 | 0.0010887  | 0.0021344  |   0.9 |  0.03
Bond    | 0.099772   | 0.13285    | 0.16987    |   3.8 |  3.61
Neigh   | 0.00060866 | 0.00087036 | 0.0011981  |   0.0 |  0.02
Comm    | 0.25095    | 0.32007    | 0.3692     |   4.5 |  8.71
Output  | 3.073      | 3.1205     | 3.1682     |   1.6 | 84.88
Modify  | 0.01398    | 0.046686   | 0.089769   |   9.2 |  1.27
Other   |            | 0.05452    |            |       |  1.48

Nlocal:          312.5 ave         367 max         244 min
Histogram: 3 6 2 4 4 13 15 6 8 3
Nghost:        395.719 ave         617 max         196 min
Histogram: 1 11 11 6 10 5 4 6 4 6
Neighs:        45.2812 ave         264 max           0 min
Histogram: 36 8 8 2 4 1 1 0 3 1

Total # of neighbors = 2898
Ave neighs/atom = 0.1449
Ave special neighs/atom = 36.5259
Neighbor list builds = 2
Dangerous builds = 0
System init for write_data ...
Generated 0 of 0 mixed pair_coeff terms from geometric mixing rule
Generated 0 of 0 mixed pair_coeff terms from geometric mixing rule
Setting up Verlet run ...
  Unit style    : metal
  Current step  : 4000
  Time step     : 0.001
Per MPI rank memory allocation (min/avg/max) = 21.23 | 21.24 | 21.26 Mbytes
   Step         TotEng         PotEng          Temp          E_bond        E_dihed           Lx             Ly             Lz      
      4000   201.22023      196.27633      1.9124788      9.2408476      199.13137      400.078        403.55603      384.2384     
      5000   209.86307      204.71238      1.9924714      10.85198       210.7845       400.60044      404.22588      380.39602    
Loop time of 2.03569 on 64 procs for 1000 steps with 20000 atoms

Performance: 42.443 ns/day, 0.565 hours/ns, 491.234 timesteps/s, 9.825 Matom-step/s
98.4% CPU use with 64 MPI tasks x 1 OpenMP threads

MPI task timing breakdown:
Section |  min time  |  avg time  |  max time  |%varavg| %total
---------------------------------------------------------------
Pair    | 0.00071791 | 0.0011     | 0.0022965  |   1.0 |  0.05
Bond    | 0.099035   | 0.13283    | 0.16926    |   3.8 |  6.53
Neigh   | 0.0007329  | 0.00097135 | 0.0014107  |   0.0 |  0.05
Comm    | 0.22173    | 0.27628    | 0.31986    |   3.8 | 13.57
Output  | 1.5352     | 1.5587     | 1.5821     |   1.1 | 76.57
Modify  | 0.011207   | 0.035923   | 0.058133   |   7.5 |  1.76
Other   |            | 0.02989    |            |       |  1.47

Nlocal:          312.5 ave         364 max         246 min
Histogram: 3 5 4 2 8 8 14 9 8 3
Nghost:        400.578 ave         624 max         195 min
Histogram: 1 9 11 9 8 5 5 6 4 6
Neighs:        55.0625 ave         314 max           0 min
Histogram: 34 10 6 4 3 2 1 1 1 2

Total # of neighbors = 3524
Ave neighs/atom = 0.1762
Ave special neighs/atom = 36.5259
Neighbor list builds = 2
Dangerous builds = 0
System init for write_data ...
Generated 0 of 0 mixed pair_coeff terms from geometric mixing rule
Generated 0 of 0 mixed pair_coeff terms from geometric mixing rule
Setting up Verlet run ...
  Unit style    : metal
  Current step  : 5000
  Time step     : 0.001
Per MPI rank memory allocation (min/avg/max) = 21.23 | 21.24 | 21.26 Mbytes
   Step         TotEng         PotEng          Temp          E_bond        E_dihed           Lx             Ly             Lz      
      5000   209.90443      204.75375      1.9924714      10.893036      210.78484      400.71299      404.33077      380.39602    
      6000   216.34239      211.6761       1.8050885      11.886743      222.94611      401.3191       404.86299      376.59206    
Loop time of 0.739263 on 64 procs for 1000 steps with 20000 atoms

Performance: 116.873 ns/day, 0.205 hours/ns, 1352.698 timesteps/s, 27.054 Matom-step/s
99.3% CPU use with 64 MPI tasks x 1 OpenMP threads

MPI task timing breakdown:
Section |  min time  |  avg time  |  max time  |%varavg| %total
---------------------------------------------------------------
Pair    | 0.00072967 | 0.0011316  | 0.0024151  |   1.1 |  0.15
Bond    | 0.09922    | 0.13295    | 0.17182    |   3.8 | 17.98
Neigh   | 0.00067255 | 0.00098246 | 0.0014972  |   0.0 |  0.13
Comm    | 0.26313    | 0.32411    | 0.37351    |   4.4 | 43.84
Output  | 0.15897    | 0.18972    | 0.22027    |   4.1 | 25.66
Modify  | 0.01286    | 0.053118   | 0.094114   |   9.4 |  7.19
Other   |            | 0.03725    |            |       |  5.04

Nlocal:          312.5 ave         364 max         246 min
Histogram: 3 5 4 3 5 14 10 9 8 3
Nghost:        403.812 ave         626 max         197 min
Histogram: 1 9 10 9 9 5 5 6 4 6
Neighs:        63.7188 ave         344 max           0 min
Histogram: 34 7 9 4 2 3 0 2 1 2

Total # of neighbors = 4078
Ave neighs/atom = 0.2039
Ave special neighs/atom = 36.5259
Neighbor list builds = 2
Dangerous builds = 0
System init for write_data ...
Generated 0 of 0 mixed pair_coeff terms from geometric mixing rule
Generated 0 of 0 mixed pair_coeff terms from geometric mixing rule
Setting up Verlet run ...
  Unit style    : metal
  Current step  : 6000
  Time step     : 0.001
Per MPI rank memory allocation (min/avg/max) = 21.23 | 21.24 | 21.26 Mbytes
   Step         TotEng         PotEng          Temp          E_bond        E_dihed           Lx             Ly             Lz      
      6000   216.38365      211.71736      1.8050885      11.927634      222.9465       401.49007      405.00329      376.59206    
      7000   226.43112      221.62303      1.8599411      13.807321      236.43445      402.02018      405.46667      372.82614    
Loop time of 0.616057 on 64 procs for 1000 steps with 20000 atoms

Performance: 140.247 ns/day, 0.171 hours/ns, 1623.226 timesteps/s, 32.465 Matom-step/s
99.2% CPU use with 64 MPI tasks x 1 OpenMP threads

MPI task timing breakdown:
Section |  min time  |  avg time  |  max time  |%varavg| %total
---------------------------------------------------------------
Pair    | 0.00073107 | 0.0011525  | 0.0024389  |   1.2 |  0.19
Bond    | 0.099272   | 0.133      | 0.1741     |   3.8 | 21.59
Neigh   | 0.00063676 | 0.00080275 | 0.0012206  |   0.0 |  0.13
Comm    | 0.20421    | 0.25339    | 0.2924     |   3.8 | 41.13
Output  | 0.13904    | 0.1632     | 0.18731    |   3.5 | 26.49
Modify  | 0.011644   | 0.033993   | 0.055371   |   7.0 |  5.52
Other   |            | 0.03053    |            |       |  4.96

Nlocal:          312.5 ave         363 max         253 min
Histogram: 4 6 3 2 11 9 11 8 5 5
Nghost:        406.344 ave         630 max         202 min
Histogram: 1 9 11 9 8 6 5 5 4 6
Neighs:         71.875 ave         368 max           0 min
Histogram: 33 6 12 3 1 2 2 2 1 2

Total # of neighbors = 4600
Ave neighs/atom = 0.23
Ave special neighs/atom = 36.5259
Neighbor list builds = 2
Dangerous builds = 0
System init for write_data ...
Generated 0 of 0 mixed pair_coeff terms from geometric mixing rule
Generated 0 of 0 mixed pair_coeff terms from geometric mixing rule
Setting up Verlet run ...
  Unit style    : metal
  Current step  : 7000
  Time step     : 0.001
Per MPI rank memory allocation (min/avg/max) = 21.23 | 21.24 | 21.26 Mbytes
   Step         TotEng         PotEng          Temp          E_bond        E_dihed           Lx             Ly             Lz      
      7000   226.47175      221.66366      1.8599411      13.847557      236.43488      402.17428      405.60312      372.82614    
      8000   235.79125      231.6073       1.6185014      15.001947      250.89039      402.58893      405.99144      369.09788    
Loop time of 0.769888 on 64 procs for 1000 steps with 20000 atoms

Performance: 112.224 ns/day, 0.214 hours/ns, 1298.890 timesteps/s, 25.978 Matom-step/s
99.1% CPU use with 64 MPI tasks x 1 OpenMP threads

MPI task timing breakdown:
Section |  min time  |  avg time  |  max time  |%varavg| %total
---------------------------------------------------------------
Pair    | 0.00075505 | 0.0012068  | 0.0026339  |   1.3 |  0.16
Bond    | 0.098612   | 0.13293    | 0.17547    |   3.8 | 17.27
Neigh   | 0.00060514 | 0.00087774 | 0.0014399  |   0.0 |  0.11
Comm    | 0.23001    | 0.28564    | 0.32359    |   4.1 | 37.10
Output  | 0.16189    | 0.22065    | 0.29904    |  11.0 | 28.66
Modify  | 0.012623   | 0.043502   | 0.086705   |   8.2 |  5.65
Other   |            | 0.08508    |            |       | 11.05

Nlocal:          312.5 ave         365 max         253 min
Histogram: 6 3 3 4 9 10 12 7 6 4
Nghost:        409.156 ave         632 max         201 min
Histogram: 1 8 11 8 7 9 4 6 4 6
Neighs:        80.3906 ave         390 max           0 min
Histogram: 32 6 11 4 2 1 3 1 2 2

Total # of neighbors = 5145
Ave neighs/atom = 0.25725
Ave special neighs/atom = 36.5259
Neighbor list builds = 2
Dangerous builds = 0
System init for write_data ...
Generated 0 of 0 mixed pair_coeff terms from geometric mixing rule
Generated 0 of 0 mixed pair_coeff terms from geometric mixing rule
Setting up Verlet run ...
  Unit style    : metal
  Current step  : 8000
  Time step     : 0.001
Per MPI rank memory allocation (min/avg/max) = 21.23 | 21.24 | 21.26 Mbytes
   Step         TotEng         PotEng          Temp          E_bond        E_dihed           Lx             Ly             Lz      
      8000   235.83071      231.64677      1.6185014      15.040962      250.89087      402.7369       406.08112      369.09788    
      9000   247.64962      243.75769      1.5055396      17.056254      266.76612      403.56597      406.39607      365.4069     
Loop time of 0.848638 on 64 procs for 1000 steps with 20000 atoms

Performance: 101.810 ns/day, 0.236 hours/ns, 1178.359 timesteps/s, 23.567 Matom-step/s
99.3% CPU use with 64 MPI tasks x 1 OpenMP threads

MPI task timing breakdown:
Section |  min time  |  avg time  |  max time  |%varavg| %total
---------------------------------------------------------------
Pair    | 0.00076689 | 0.0012729  | 0.0027642  |   1.4 |  0.15
Bond    | 0.098681   | 0.13309    | 0.17689    |   3.8 | 15.68
Neigh   | 0.00072388 | 0.00090449 | 0.0012193  |   0.0 |  0.11
Comm    | 0.2894     | 0.34677    | 0.38967    |   4.2 | 40.86
Output  | 0.21127    | 0.26132    | 0.3106     |   5.7 | 30.79
Modify  | 0.014768   | 0.048882   | 0.095634   |   9.6 |  5.76
Other   |            | 0.0564     |            |       |  6.65

Nlocal:          312.5 ave         366 max         257 min
Histogram: 5 6 4 5 8 10 12 6 3 5
Nghost:        412.047 ave         643 max         206 min
Histogram: 2 8 11 8 9 6 5 6 4 5
Neighs:        89.3594 ave         438 max           0 min
Histogram: 32 4 13 4 2 1 2 4 1 1

Total # of neighbors = 5719
Ave neighs/atom = 0.28595
Ave special neighs/atom = 36.5259
Neighbor list builds = 2
Dangerous builds = 0
System init for write_data ...
Generated 0 of 0 mixed pair_coeff terms from geometric mixing rule
Generated 0 of 0 mixed pair_coeff terms from geometric mixing rule
Setting up Verlet run ...
  Unit style    : metal
  Current step  : 9000
  Time step     : 0.001
Per MPI rank memory allocation (min/avg/max) = 21.23 | 21.24 | 21.26 Mbytes
   Step         TotEng         PotEng          Temp          E_bond        E_dihed           Lx             Ly             Lz      
      9000   247.68956      243.79763      1.5055396      17.09571       266.76665      403.70924      406.44151      365.4069     
     10000   262.76757      258.97936      1.4654156      18.861014      283.30861      404.63197      406.76179      361.75283    
Loop time of 0.7794 on 64 procs for 1000 steps with 20000 atoms

Performance: 110.855 ns/day, 0.216 hours/ns, 1283.038 timesteps/s, 25.661 Matom-step/s
99.2% CPU use with 64 MPI tasks x 1 OpenMP threads

MPI task timing breakdown:
Section |  min time  |  avg time  |  max time  |%varavg| %total
---------------------------------------------------------------
Pair    | 0.00073894 | 0.0012828  | 0.0028109  |   1.5 |  0.16
Bond    | 0.099542   | 0.13312    | 0.17621    |   3.8 | 17.08
Neigh   | 0.00070706 | 0.0009792  | 0.0015977  |   0.0 |  0.13
Comm    | 0.28354    | 0.33914    | 0.3808     |   4.1 | 43.51
Output  | 0.17756    | 0.21436    | 0.24915    |   4.5 | 27.50
Modify  | 0.013735   | 0.048876   | 0.08734    |   9.4 |  6.27
Other   |            | 0.04164    |            |       |  5.34

Nlocal:          312.5 ave         364 max         258 min
Histogram: 4 6 4 7 8 8 10 9 3 5
Nghost:        415.781 ave         643 max         211 min
Histogram: 2 7 12 7 9 6 6 5 5 5
Neighs:        98.3906 ave         459 max           0 min
Histogram: 32 3 11 7 2 1 1 4 2 1

Total # of neighbors = 6297
Ave neighs/atom = 0.31485
Ave special neighs/atom = 36.5259
Neighbor list builds = 2
Dangerous builds = 0
System init for write_data ...
Generated 0 of 0 mixed pair_coeff terms from geometric mixing rule
Generated 0 of 0 mixed pair_coeff terms from geometric mixing rule
Setting up Verlet run ...
  Unit style    : metal
  Current step  : 10000
  Time step     : 0.001
Per MPI rank memory allocation (min/avg/max) = 21.23 | 21.24 | 21.26 Mbytes
   Step         TotEng         PotEng          Temp          E_bond        E_dihed           Lx             Ly             Lz      
     10000   262.80648      259.01827      1.4654156      18.899405      283.30918      404.6969       406.77955      361.75283    
     11000   250.70248      247.94077      1.0683299      14.961157      277.98949      405.11191      406.89917      361.75283    
Loop time of 0.537662 on 64 procs for 1000 steps with 20000 atoms

Performance: 160.696 ns/day, 0.149 hours/ns, 1859.904 timesteps/s, 37.198 Matom-step/s
99.2% CPU use with 64 MPI tasks x 1 OpenMP threads

MPI task timing breakdown:
Section |  min time  |  avg time  |  max time  |%varavg| %total
---------------------------------------------------------------
Pair    | 0.00074289 | 0.0012818  | 0.0028827  |   1.5 |  0.24
Bond    | 0.10067    | 0.13284    | 0.17143    |   3.7 | 24.71
Neigh   | 0.00031257 | 0.0004054  | 0.00068018 |   0.0 |  0.08
Comm    | 0.1438     | 0.18852    | 0.22681    |   4.4 | 35.06
Output  | 0.12763    | 0.15245    | 0.1772     |   3.7 | 28.36
Modify  | 0.0082526  | 0.031842   | 0.057736   |   7.9 |  5.92
Other   |            | 0.03031    |            |       |  5.64

Nlocal:          312.5 ave         365 max         257 min
Histogram: 4 5 6 8 7 6 10 11 3 4
Nghost:        416.531 ave         646 max         211 min
Histogram: 2 7 12 7 9 6 7 5 4 5
Neighs:        100.984 ave         458 max           0 min
Histogram: 31 5 9 7 3 1 0 5 2 1

Total # of neighbors = 6463
Ave neighs/atom = 0.32315
Ave special neighs/atom = 36.5259
Neighbor list builds = 1
Dangerous builds = 0
System init for write_data ...
Generated 0 of 0 mixed pair_coeff terms from geometric mixing rule
Generated 0 of 0 mixed pair_coeff terms from geometric mixing rule
Setting up Verlet run ...
  Unit style    : metal
  Current step  : 11000
  Time step     : 0.001
Per MPI rank memory allocation (min/avg/max) = 21.23 | 21.24 | 21.26 Mbytes
   Step         TotEng         PotEng          Temp          E_bond        E_dihed           Lx             Ly             Lz      
     11000   250.70248      247.94077      1.0683299      14.961157      277.98949      405.20318      406.88909      361.75283    
     12000   239.26516      236.53766      1.0550943      14.77663       272.78996      405.62932      406.82835      361.75283    
Loop time of 0.755553 on 64 procs for 1000 steps with 20000 atoms

Performance: 114.353 ns/day, 0.210 hours/ns, 1323.534 timesteps/s, 26.471 Matom-step/s
99.3% CPU use with 64 MPI tasks x 1 OpenMP threads

MPI task timing breakdown:
Section |  min time  |  avg time  |  max time  |%varavg| %total
---------------------------------------------------------------
Pair    | 0.00075252 | 0.0013165  | 0.0028879  |   1.6 |  0.17
Bond    | 0.10146    | 0.13291    | 0.17124    |   3.7 | 17.59
Neigh   | 0.00032733 | 0.00042903 | 0.00062154 |   0.0 |  0.06
Comm    | 0.28338    | 0.33269    | 0.37077    |   3.6 | 44.03
Output  | 0.16947    | 0.20686    | 0.24231    |   4.7 | 27.38
Modify  | 0.010062   | 0.03957    | 0.074852   |   8.5 |  5.24
Other   |            | 0.04177    |            |       |  5.53

Nlocal:          312.5 ave         367 max         256 min
Histogram: 4 5 7 6 9 6 11 9 2 5
Nghost:         416.25 ave         647 max         211 min
Histogram: 4 5 12 8 8 6 7 5 4 5
Neighs:            104 ave         476 max           0 min
Histogram: 31 5 9 7 3 1 1 4 2 1

Total # of neighbors = 6656
Ave neighs/atom = 0.3328
Ave special neighs/atom = 36.5259
Neighbor list builds = 1
Dangerous builds = 0
System init for write_data ...
Generated 0 of 0 mixed pair_coeff terms from geometric mixing rule
Generated 0 of 0 mixed pair_coeff terms from geometric mixing rule
Setting up Verlet run ...
  Unit style    : metal
  Current step  : 12000
  Time step     : 0.001
Per MPI rank memory allocation (min/avg/max) = 21.23 | 21.24 | 21.26 Mbytes
   Step         TotEng         PotEng          Temp          E_bond        E_dihed           Lx             Ly             Lz      
     12000   239.26516      236.53766      1.0550943      14.77663       272.78996      405.70098      406.79803      361.75283    
     13000   230.63575      227.92148      1.0499772      13.691108      268.1599       406.20622      406.63618      361.75283    
Loop time of 0.795898 on 64 procs for 1000 steps with 20000 atoms

Performance: 108.557 ns/day, 0.221 hours/ns, 1256.442 timesteps/s, 25.129 Matom-step/s
99.3% CPU use with 64 MPI tasks x 1 OpenMP threads

MPI task timing breakdown:
Section |  min time  |  avg time  |  max time  |%varavg| %total
---------------------------------------------------------------
Pair    | 0.00075643 | 0.0013346  | 0.0030037  |   1.6 |  0.17
Bond    | 0.10212    | 0.13312    | 0.17176    |   3.7 | 16.73
Neigh   | 0.00029328 | 0.00050494 | 0.0007691  |   0.0 |  0.06
Comm    | 0.28298    | 0.33851    | 0.38314    |   3.9 | 42.53
Output  | 0.18153    | 0.23073    | 0.27383    |   5.6 | 28.99
Modify  | 0.0096668  | 0.042227   | 0.077868   |   9.3 |  5.31
Other   |            | 0.04948    |            |       |  6.22

Nlocal:          312.5 ave         367 max         255 min
Histogram: 3 6 4 8 9 7 10 10 2 5
Nghost:        416.453 ave         650 max         210 min
Histogram: 5 4 12 6 10 7 6 5 4 5
Neighs:        107.438 ave         481 max           0 min
Histogram: 31 6 7 8 1 3 0 4 2 2

Total # of neighbors = 6876
Ave neighs/atom = 0.3438
Ave special neighs/atom = 36.5259
Neighbor list builds = 1
Dangerous builds = 0
System init for write_data ...
Generated 0 of 0 mixed pair_coeff terms from geometric mixing rule
Generated 0 of 0 mixed pair_coeff terms from geometric mixing rule
Setting up Verlet run ...
  Unit style    : metal
  Current step  : 13000
  Time step     : 0.001
Per MPI rank memory allocation (min/avg/max) = 21.23 | 21.24 | 21.26 Mbytes
   Step         TotEng         PotEng          Temp          E_bond        E_dihed           Lx             Ly             Lz      
     13000   230.63575      227.92148      1.0499772      13.691108      268.1599       406.24996      406.61619      361.75283    
     14000   223.69138      221.07852      1.0107495      12.751049      263.27103      406.24996      406.61619      361.75283    
Loop time of 0.815332 on 64 procs for 1000 steps with 20000 atoms

Performance: 105.969 ns/day, 0.226 hours/ns, 1226.495 timesteps/s, 24.530 Matom-step/s
99.3% CPU use with 64 MPI tasks x 1 OpenMP threads

MPI task timing breakdown:
Section |  min time  |  avg time  |  max time  |%varavg| %total
---------------------------------------------------------------
Pair    | 0.00074298 | 0.0013543  | 0.003083   |   1.7 |  0.17
Bond    | 0.10269    | 0.13303    | 0.17293    |   3.7 | 16.32
Neigh   | 0          | 0          | 0          |   0.0 |  0.00
Comm    | 0.2786     | 0.33933    | 0.38997    |   4.7 | 41.62
Output  | 0.18658    | 0.23372    | 0.28276    |   5.9 | 28.67
Modify  | 0.010012   | 0.052377   | 0.097886   |  10.9 |  6.42
Other   |            | 0.05552    |            |       |  6.81

Nlocal:          312.5 ave         367 max         255 min
Histogram: 3 6 4 8 9 7 10 10 2 5
Nghost:        416.531 ave         650 max         211 min
Histogram: 5 4 12 6 10 7 6 5 4 5
Neighs:        107.688 ave         481 max           0 min
Histogram: 31 6 7 8 1 3 0 4 2 2

Total # of neighbors = 6892
Ave neighs/atom = 0.3446
Ave special neighs/atom = 36.5259
Neighbor list builds = 0
Dangerous builds = 0
System init for write_data ...
Generated 0 of 0 mixed pair_coeff terms from geometric mixing rule
Generated 0 of 0 mixed pair_coeff terms from geometric mixing rule
Setting up Verlet run ...
  Unit style    : metal
  Current step  : 14000
  Time step     : 0.001
Per MPI rank memory allocation (min/avg/max) = 21.23 | 21.24 | 21.26 Mbytes
   Step         TotEng         PotEng          Temp          E_bond        E_dihed           Lx             Ly             Lz      
     14000   223.69138      221.07852      1.0107495      12.751049      263.27103      406.79616      406.55969      361.75283    
     15000   216.43759      213.76047      1.0356062      12.359519      259.34839      407.28588      406.65271      361.75283    
Loop time of 0.719492 on 64 procs for 1000 steps with 20000 atoms

Performance: 120.085 ns/day, 0.200 hours/ns, 1389.869 timesteps/s, 27.797 Matom-step/s
99.3% CPU use with 64 MPI tasks x 1 OpenMP threads

MPI task timing breakdown:
Section |  min time  |  avg time  |  max time  |%varavg| %total
---------------------------------------------------------------
Pair    | 0.00074579 | 0.0013403  | 0.0030183  |   1.7 |  0.19
Bond    | 0.10265    | 0.13304    | 0.17209    |   3.8 | 18.49
Neigh   | 0.00034307 | 0.00050294 | 0.00074168 |   0.0 |  0.07
Comm    | 0.24501    | 0.29705    | 0.34356    |   4.4 | 41.29
Output  | 0.16525    | 0.20072    | 0.23585    |   4.6 | 27.90
Modify  | 0.0090242  | 0.045388   | 0.08183    |  10.0 |  6.31
Other   |            | 0.04145    |            |       |  5.76

Nlocal:          312.5 ave         369 max         253 min
Histogram: 4 5 3 10 8 8 9 10 3 4
Nghost:        417.062 ave         658 max         208 min
Histogram: 5 4 13 6 9 7 7 4 5 4
Neighs:        112.797 ave         496 max           0 min
Histogram: 31 6 7 7 2 2 2 3 1 3

Total # of neighbors = 7219
Ave neighs/atom = 0.36095
Ave special neighs/atom = 36.5259
Neighbor list builds = 1
Dangerous builds = 0
System init for write_data ...
Generated 0 of 0 mixed pair_coeff terms from geometric mixing rule
Generated 0 of 0 mixed pair_coeff terms from geometric mixing rule
Setting up Verlet run ...
  Unit style    : metal
  Current step  : 15000
  Time step     : 0.001
Per MPI rank memory allocation (min/avg/max) = 21.23 | 21.24 | 21.26 Mbytes
   Step         TotEng         PotEng          Temp          E_bond        E_dihed           Lx             Ly             Lz      
     15000   216.43759      213.76047      1.0356062      12.359519      259.34839      407.31878      406.65594      361.75283    
     16000   209.3468       206.88005      0.9542282      12.31916       256.43585      407.31878      406.65594      361.75283    
Loop time of 0.868604 on 64 procs for 1000 steps with 20000 atoms

Performance: 99.470 ns/day, 0.241 hours/ns, 1151.273 timesteps/s, 23.025 Matom-step/s
99.3% CPU use with 64 MPI tasks x 1 OpenMP threads

MPI task timing breakdown:
Section |  min time  |  avg time  |  max time  |%varavg| %total
---------------------------------------------------------------
Pair    | 0.00075924 | 0.0013888  | 0.0031385  |   1.8 |  0.16
Bond    | 0.10283    | 0.13321    | 0.17378    |   3.8 | 15.34
Neigh   | 0          | 0          | 0          |   0.0 |  0.00
Comm    | 0.28351    | 0.3494     | 0.3936     |   4.4 | 40.23
Output  | 0.216      | 0.27776    | 0.3288     |   6.0 | 31.98
Modify  | 0.012047   | 0.049112   | 0.10109    |  10.7 |  5.65
Other   |            | 0.05774    |            |       |  6.65

Nlocal:          312.5 ave         369 max         253 min
Histogram: 4 5 3 10 8 8 9 9 4 4
Nghost:            417 ave         658 max         207 min
Histogram: 5 4 13 6 9 7 7 4 5 4
Neighs:        113.047 ave         497 max           0 min
Histogram: 31 6 7 7 3 1 2 3 1 3

Total # of neighbors = 7235
Ave neighs/atom = 0.36175
Ave special neighs/atom = 36.5259
Neighbor list builds = 0
Dangerous builds = 0
System init for write_data ...
Generated 0 of 0 mixed pair_coeff terms from geometric mixing rule
Generated 0 of 0 mixed pair_coeff terms from geometric mixing rule
Setting up Verlet run ...
  Unit style    : metal
  Current step  : 16000
  Time step     : 0.001
Per MPI rank memory allocation (min/avg/max) = 21.23 | 21.24 | 21.26 Mbytes
   Step         TotEng         PotEng          Temp          E_bond        E_dihed           Lx             Ly             Lz      
     16000   209.3468       206.88005      0.9542282      12.31916       256.43585      407.76471      406.67164      361.75283    
     17000   204.80196      202.25063      0.98694983     11.870361      253.43383      407.84455      406.54923      361.75283    
Loop time of 0.804864 on 64 procs for 1000 steps with 20000 atoms

Performance: 107.347 ns/day, 0.224 hours/ns, 1242.446 timesteps/s, 24.849 Matom-step/s
99.3% CPU use with 64 MPI tasks x 1 OpenMP threads

MPI task timing breakdown:
Section |  min time  |  avg time  |  max time  |%varavg| %total
---------------------------------------------------------------
Pair    | 0.00075501 | 0.0013799  | 0.0031553  |   1.8 |  0.17
Bond    | 0.10292    | 0.13316    | 0.17225    |   3.9 | 16.54
Neigh   | 0.00034184 | 0.0004577  | 0.00065535 |   0.0 |  0.06
Comm    | 0.28476    | 0.34659    | 0.39861    |   4.7 | 43.06
Output  | 0.18457    | 0.22474    | 0.26315    |   4.9 | 27.92
Modify  | 0.0098521  | 0.053621   | 0.10539    |  11.0 |  6.66
Other   |            | 0.04492    |            |       |  5.58

Nlocal:          312.5 ave         374 max         252 min
Histogram: 4 5 6 6 11 10 8 7 3 4
Nghost:        417.312 ave         655 max         208 min
Histogram: 5 4 10 9 9 7 7 3 6 4
Neighs:        117.578 ave         502 max           0 min
Histogram: 31 6 8 5 2 3 2 2 1 4

Total # of neighbors = 7525
Ave neighs/atom = 0.37625
Ave special neighs/atom = 36.5259
Neighbor list builds = 1
Dangerous builds = 0
System init for write_data ...
Generated 0 of 0 mixed pair_coeff terms from geometric mixing rule
Generated 0 of 0 mixed pair_coeff terms from geometric mixing rule
Setting up Verlet run ...
  Unit style    : metal
  Current step  : 17000
  Time step     : 0.001
Per MPI rank memory allocation (min/avg/max) = 21.23 | 21.24 | 21.26 Mbytes
   Step         TotEng         PotEng          Temp          E_bond        E_dihed           Lx             Ly             Lz      
     17000   204.80196      202.25063      0.98694983     11.870361      253.43383      407.76735      406.50998      361.75283    
     18000   198.7778       196.28148      0.96566773     11.91961       251.25571      407.90929      406.39101      361.75283    
Loop time of 0.672687 on 64 procs for 1000 steps with 20000 atoms

Performance: 128.440 ns/day, 0.187 hours/ns, 1486.575 timesteps/s, 29.731 Matom-step/s
99.3% CPU use with 64 MPI tasks x 1 OpenMP threads

MPI task timing breakdown:
Section |  min time  |  avg time  |  max time  |%varavg| %total
---------------------------------------------------------------
Pair    | 0.00074869 | 0.0013761  | 0.0032729  |   1.9 |  0.20
Bond    | 0.10339    | 0.13295    | 0.17052    |   3.9 | 19.76
Neigh   | 0.00029058 | 0.00037605 | 0.00044971 |   0.0 |  0.06
Comm    | 0.19434    | 0.24903    | 0.29531    |   5.1 | 37.02
Output  | 0.1603     | 0.19961    | 0.23858    |   5.2 | 29.67
Modify  | 0.0087293  | 0.04428    | 0.088974   |  10.5 |  6.58
Other   |            | 0.04507    |            |       |  6.70

Nlocal:          312.5 ave         374 max         249 min
Histogram: 4 4 5 9 9 9 8 8 4 4
Nghost:        416.969 ave         654 max         208 min
Histogram: 5 3 13 7 9 7 6 4 6 4
Neighs:        119.922 ave         519 max           0 min
Histogram: 31 6 8 6 1 3 2 2 1 4

Total # of neighbors = 7675
Ave neighs/atom = 0.38375
Ave special neighs/atom = 36.5259
Neighbor list builds = 1
Dangerous builds = 0
System init for write_data ...
Generated 0 of 0 mixed pair_coeff terms from geometric mixing rule
Generated 0 of 0 mixed pair_coeff terms from geometric mixing rule
Setting up Verlet run ...
  Unit style    : metal
  Current step  : 18000
  Time step     : 0.001
Per MPI rank memory allocation (min/avg/max) = 21.23 | 21.24 | 21.26 Mbytes
   Step         TotEng         PotEng          Temp          E_bond        E_dihed           Lx             Ly             Lz      
     18000   198.7778       196.28148      0.96566773     11.91961       251.25571      407.92125      406.41132      361.75283    
     19000   192.26514      189.87342      0.92520425     12.176377      249.41805      408.03433      406.6017       361.75283    
Loop time of 0.758533 on 64 procs for 1000 steps with 20000 atoms

Performance: 113.904 ns/day, 0.211 hours/ns, 1318.334 timesteps/s, 26.367 Matom-step/s
99.3% CPU use with 64 MPI tasks x 1 OpenMP threads

MPI task timing breakdown:
Section |  min time  |  avg time  |  max time  |%varavg| %total
---------------------------------------------------------------
Pair    | 0.0007404  | 0.0013897  | 0.0032465  |   1.9 |  0.18
Bond    | 0.10336    | 0.13314    | 0.17121    |   4.0 | 17.55
Neigh   | 0.00067126 | 0.00096357 | 0.0014909  |   0.0 |  0.13
Comm    | 0.28705    | 0.33488    | 0.37978    |   3.9 | 44.15
Output  | 0.16722    | 0.20584    | 0.23871    |   4.5 | 27.14
Modify  | 0.0093093  | 0.042966   | 0.080089   |   9.0 |  5.66
Other   |            | 0.03935    |            |       |  5.19

Nlocal:          312.5 ave         377 max         245 min
Histogram: 4 4 4 9 11 9 6 10 3 4
Nghost:        417.406 ave         654 max         204 min
Histogram: 4 4 12 8 9 6 6 5 5 5
Neighs:        121.625 ave         521 max           0 min
Histogram: 31 7 6 7 1 3 1 3 0 5

Total # of neighbors = 7784
Ave neighs/atom = 0.3892
Ave special neighs/atom = 36.5259
Neighbor list builds = 2
Dangerous builds = 0
System init for write_data ...
Generated 0 of 0 mixed pair_coeff terms from geometric mixing rule
Generated 0 of 0 mixed pair_coeff terms from geometric mixing rule
Setting up Verlet run ...
  Unit style    : metal
  Current step  : 19000
  Time step     : 0.001
Per MPI rank memory allocation (min/avg/max) = 21.23 | 21.24 | 21.26 Mbytes
   Step         TotEng         PotEng          Temp          E_bond        E_dihed           Lx             Ly             Lz      
     19000   192.26514      189.87342      0.92520425     12.176377      249.41805      408.14778      406.70638      361.75283    
     20000   187.98165      185.47547      0.96948117     11.939551      247.31595      408.14778      406.70638      361.75283    
Loop time of 0.868095 on 64 procs for 1000 steps with 20000 atoms

Performance: 99.528 ns/day, 0.241 hours/ns, 1151.947 timesteps/s, 23.039 Matom-step/s
99.3% CPU use with 64 MPI tasks x 1 OpenMP threads

MPI task timing breakdown:
Section |  min time  |  avg time  |  max time  |%varavg| %total
---------------------------------------------------------------
Pair    | 0.00074609 | 0.0014223  | 0.0033336  |   2.0 |  0.16
Bond    | 0.10286    | 0.13316    | 0.17136    |   4.0 | 15.34
Neigh   | 0          | 0          | 0          |   0.0 |  0.00
Comm    | 0.29235    | 0.35932    | 0.42028    |   5.6 | 41.39
Output  | 0.20716    | 0.25908    | 0.30613    |   5.7 | 29.84
Modify  | 0.0097578  | 0.061454   | 0.12035    |  12.9 |  7.08
Other   |            | 0.05367    |            |       |  6.18

Nlocal:          312.5 ave         377 max         243 min
Histogram: 3 5 4 7 13 9 6 10 3 4
Nghost:        417.234 ave         653 max         204 min
Histogram: 4 4 12 8 8 7 6 5 5 5
Neighs:        122.406 ave         523 max           0 min
Histogram: 31 7 6 7 1 3 1 3 0 5

Total # of neighbors = 7834
Ave neighs/atom = 0.3917
Ave special neighs/atom = 36.5259
Neighbor list builds = 0
Dangerous builds = 0
System init for write_data ...
Generated 0 of 0 mixed pair_coeff terms from geometric mixing rule
ERROR: Could not find fix ID deform to delete (src/modify.cpp:1046)
Last command: unfix deform
--------------------------------------------------------------------------
Primary job  terminated normally, but 1 process returned
a non-zero exit code. Per user-direction, the job has been aborted.
--------------------------------------------------------------------------
--------------------------------------------------------------------------
mpirun detected that one or more processes exited with non-zero status, thus causing
the job to be terminated. The first process to do so was:

  Process name: [[61892,1],56]
  Exit code:    1
--------------------------------------------------------------------------
